s 0.030050775 _0_ RTR  --- 0 message 32 [0 0 0 0] ------- [0:255 -1:255 32 0] 
r 0.031030883 _5_ RTR  --- 0 message 32 [0 ffffffff 0 800] ------- [0:255 -1:255 32 0] 
r 0.031030886 _1_ RTR  --- 0 message 32 [0 ffffffff 0 800] ------- [0:255 -1:255 32 0] 
r 0.031031002 _6_ RTR  --- 0 message 32 [0 ffffffff 0 800] ------- [0:255 -1:255 32 0] 
r 0.031031004 _8_ RTR  --- 0 message 32 [0 ffffffff 0 800] ------- [0:255 -1:255 32 0] 
r 0.031031173 _2_ RTR  --- 0 message 32 [0 ffffffff 0 800] ------- [0:255 -1:255 32 0] 
r 0.031031181 _9_ RTR  --- 0 message 32 [0 ffffffff 0 800] ------- [0:255 -1:255 32 0] 
r 0.031031220 _4_ RTR  --- 0 message 32 [0 ffffffff 0 800] ------- [0:255 -1:255 32 0] 
r 0.031031283 _3_ RTR  --- 0 message 32 [0 ffffffff 0 800] ------- [0:255 -1:255 32 0] 
r 0.031031309 _7_ RTR  --- 0 message 32 [0 ffffffff 0 800] ------- [0:255 -1:255 32 0] 
s 0.184842620 _1_ RTR  --- 1 message 32 [0 0 0 0] ------- [1:255 -1:255 32 0] 
r 0.186142730 _0_ RTR  --- 1 message 32 [0 ffffffff 1 800] ------- [1:255 -1:255 32 0] 
r 0.186142764 _8_ RTR  --- 1 message 32 [0 ffffffff 1 800] ------- [1:255 -1:255 32 0] 
r 0.186142771 _5_ RTR  --- 1 message 32 [0 ffffffff 1 800] ------- [1:255 -1:255 32 0] 
r 0.186142861 _6_ RTR  --- 1 message 32 [0 ffffffff 1 800] ------- [1:255 -1:255 32 0] 
r 0.186142907 _2_ RTR  --- 1 message 32 [0 ffffffff 1 800] ------- [1:255 -1:255 32 0] 
r 0.186142996 _4_ RTR  --- 1 message 32 [0 ffffffff 1 800] ------- [1:255 -1:255 32 0] 
r 0.186143003 _9_ RTR  --- 1 message 32 [0 ffffffff 1 800] ------- [1:255 -1:255 32 0] 
r 0.186143018 _3_ RTR  --- 1 message 32 [0 ffffffff 1 800] ------- [1:255 -1:255 32 0] 
r 0.186143048 _7_ RTR  --- 1 message 32 [0 ffffffff 1 800] ------- [1:255 -1:255 32 0] 
s 0.477273789 _6_ RTR  --- 2 message 32 [0 0 0 0] ------- [6:255 -1:255 32 0] 
r 0.478313981 _9_ RTR  --- 2 message 32 [0 ffffffff 6 800] ------- [6:255 -1:255 32 0] 
r 0.478313995 _8_ RTR  --- 2 message 32 [0 ffffffff 6 800] ------- [6:255 -1:255 32 0] 
r 0.478314016 _0_ RTR  --- 2 message 32 [0 ffffffff 6 800] ------- [6:255 -1:255 32 0] 
r 0.478314031 _1_ RTR  --- 2 message 32 [0 ffffffff 6 800] ------- [6:255 -1:255 32 0] 
r 0.478314090 _4_ RTR  --- 2 message 32 [0 ffffffff 6 800] ------- [6:255 -1:255 32 0] 
r 0.478314123 _5_ RTR  --- 2 message 32 [0 ffffffff 6 800] ------- [6:255 -1:255 32 0] 
r 0.478314209 _2_ RTR  --- 2 message 32 [0 ffffffff 6 800] ------- [6:255 -1:255 32 0] 
r 0.478314291 _3_ RTR  --- 2 message 32 [0 ffffffff 6 800] ------- [6:255 -1:255 32 0] 
r 0.478314401 _7_ RTR  --- 2 message 32 [0 ffffffff 6 800] ------- [6:255 -1:255 32 0] 
s 0.623344604 _8_ RTR  --- 3 message 32 [0 0 0 0] ------- [8:255 -1:255 32 0] 
r 0.624344748 _1_ RTR  --- 3 message 32 [0 ffffffff 8 800] ------- [8:255 -1:255 32 0] 
r 0.624344810 _6_ RTR  --- 3 message 32 [0 ffffffff 8 800] ------- [8:255 -1:255 32 0] 
r 0.624344819 _2_ RTR  --- 3 message 32 [0 ffffffff 8 800] ------- [8:255 -1:255 32 0] 
r 0.624344832 _0_ RTR  --- 3 message 32 [0 ffffffff 8 800] ------- [8:255 -1:255 32 0] 
r 0.624344836 _4_ RTR  --- 3 message 32 [0 ffffffff 8 800] ------- [8:255 -1:255 32 0] 
r 0.624344879 _9_ RTR  --- 3 message 32 [0 ffffffff 8 800] ------- [8:255 -1:255 32 0] 
r 0.624344898 _5_ RTR  --- 3 message 32 [0 ffffffff 8 800] ------- [8:255 -1:255 32 0] 
r 0.624344911 _3_ RTR  --- 3 message 32 [0 ffffffff 8 800] ------- [8:255 -1:255 32 0] 
r 0.624345011 _7_ RTR  --- 3 message 32 [0 ffffffff 8 800] ------- [8:255 -1:255 32 0] 
s 0.634321795 _4_ RTR  --- 4 message 32 [0 0 0 0] ------- [4:255 -1:255 32 0] 
r 0.635501983 _9_ RTR  --- 4 message 32 [0 ffffffff 4 800] ------- [4:255 -1:255 32 0] 
r 0.635502028 _8_ RTR  --- 4 message 32 [0 ffffffff 4 800] ------- [4:255 -1:255 32 0] 
r 0.635502094 _2_ RTR  --- 4 message 32 [0 ffffffff 4 800] ------- [4:255 -1:255 32 0] 
r 0.635502096 _6_ RTR  --- 4 message 32 [0 ffffffff 4 800] ------- [4:255 -1:255 32 0] 
r 0.635502107 _3_ RTR  --- 4 message 32 [0 ffffffff 4 800] ------- [4:255 -1:255 32 0] 
r 0.635502171 _1_ RTR  --- 4 message 32 [0 ffffffff 4 800] ------- [4:255 -1:255 32 0] 
r 0.635502240 _0_ RTR  --- 4 message 32 [0 ffffffff 4 800] ------- [4:255 -1:255 32 0] 
r 0.635502296 _7_ RTR  --- 4 message 32 [0 ffffffff 4 800] ------- [4:255 -1:255 32 0] 
r 0.635502320 _5_ RTR  --- 4 message 32 [0 ffffffff 4 800] ------- [4:255 -1:255 32 0] 
s 0.889120254 _2_ RTR  --- 5 message 32 [0 0 0 0] ------- [2:255 -1:255 32 0] 
r 0.890080367 _3_ RTR  --- 5 message 32 [0 ffffffff 2 800] ------- [2:255 -1:255 32 0] 
r 0.890080462 _7_ RTR  --- 5 message 32 [0 ffffffff 2 800] ------- [2:255 -1:255 32 0] 
r 0.890080469 _8_ RTR  --- 5 message 32 [0 ffffffff 2 800] ------- [2:255 -1:255 32 0] 
r 0.890080541 _1_ RTR  --- 5 message 32 [0 ffffffff 2 800] ------- [2:255 -1:255 32 0] 
r 0.890080552 _4_ RTR  --- 5 message 32 [0 ffffffff 2 800] ------- [2:255 -1:255 32 0] 
r 0.890080651 _0_ RTR  --- 5 message 32 [0 ffffffff 2 800] ------- [2:255 -1:255 32 0] 
r 0.890080670 _5_ RTR  --- 5 message 32 [0 ffffffff 2 800] ------- [2:255 -1:255 32 0] 
r 0.890080673 _6_ RTR  --- 5 message 32 [0 ffffffff 2 800] ------- [2:255 -1:255 32 0] 
r 0.890080691 _9_ RTR  --- 5 message 32 [0 ffffffff 2 800] ------- [2:255 -1:255 32 0] 
s 1.278822271 _7_ RTR  --- 6 message 32 [0 0 0 0] ------- [7:255 -1:255 32 0] 
r 1.279742480 _2_ RTR  --- 6 message 32 [0 ffffffff 7 800] ------- [7:255 -1:255 32 0] 
r 1.279742483 _3_ RTR  --- 6 message 32 [0 ffffffff 7 800] ------- [7:255 -1:255 32 0] 
r 1.279742678 _8_ RTR  --- 6 message 32 [0 ffffffff 7 800] ------- [7:255 -1:255 32 0] 
r 1.279742700 _1_ RTR  --- 6 message 32 [0 ffffffff 7 800] ------- [7:255 -1:255 32 0] 
r 1.279742772 _4_ RTR  --- 6 message 32 [0 ffffffff 7 800] ------- [7:255 -1:255 32 0] 
r 1.279742785 _5_ RTR  --- 6 message 32 [0 ffffffff 7 800] ------- [7:255 -1:255 32 0] 
r 1.279742805 _0_ RTR  --- 6 message 32 [0 ffffffff 7 800] ------- [7:255 -1:255 32 0] 
r 1.279742883 _6_ RTR  --- 6 message 32 [0 ffffffff 7 800] ------- [7:255 -1:255 32 0] 
r 1.279742917 _9_ RTR  --- 6 message 32 [0 ffffffff 7 800] ------- [7:255 -1:255 32 0] 
s 1.607773557 _3_ RTR  --- 7 message 32 [0 0 0 0] ------- [3:255 -1:255 32 0] 
r 1.609173670 _2_ RTR  --- 7 message 32 [0 ffffffff 3 800] ------- [3:255 -1:255 32 0] 
r 1.609173768 _7_ RTR  --- 7 message 32 [0 ffffffff 3 800] ------- [3:255 -1:255 32 0] 
r 1.609173864 _8_ RTR  --- 7 message 32 [0 ffffffff 3 800] ------- [3:255 -1:255 32 0] 
r 1.609173868 _4_ RTR  --- 7 message 32 [0 ffffffff 3 800] ------- [3:255 -1:255 32 0] 
r 1.609173955 _1_ RTR  --- 7 message 32 [0 ffffffff 3 800] ------- [3:255 -1:255 32 0] 
r 1.609174038 _9_ RTR  --- 7 message 32 [0 ffffffff 3 800] ------- [3:255 -1:255 32 0] 
r 1.609174059 _6_ RTR  --- 7 message 32 [0 ffffffff 3 800] ------- [3:255 -1:255 32 0] 
r 1.609174064 _0_ RTR  --- 7 message 32 [0 ffffffff 3 800] ------- [3:255 -1:255 32 0] 
r 1.609174087 _5_ RTR  --- 7 message 32 [0 ffffffff 3 800] ------- [3:255 -1:255 32 0] 
s 1.633060186 _5_ RTR  --- 8 message 32 [0 0 0 0] ------- [5:255 -1:255 32 0] 
r 1.634380293 _0_ RTR  --- 8 message 32 [0 ffffffff 5 800] ------- [5:255 -1:255 32 0] 
r 1.634380337 _1_ RTR  --- 8 message 32 [0 ffffffff 5 800] ------- [5:255 -1:255 32 0] 
r 1.634380481 _8_ RTR  --- 8 message 32 [0 ffffffff 5 800] ------- [5:255 -1:255 32 0] 
r 1.634380520 _6_ RTR  --- 8 message 32 [0 ffffffff 5 800] ------- [5:255 -1:255 32 0] 
r 1.634380603 _2_ RTR  --- 8 message 32 [0 ffffffff 5 800] ------- [5:255 -1:255 32 0] 
r 1.634380693 _9_ RTR  --- 8 message 32 [0 ffffffff 5 800] ------- [5:255 -1:255 32 0] 
r 1.634380700 _7_ RTR  --- 8 message 32 [0 ffffffff 5 800] ------- [5:255 -1:255 32 0] 
r 1.634380711 _4_ RTR  --- 8 message 32 [0 ffffffff 5 800] ------- [5:255 -1:255 32 0] 
r 1.634380716 _3_ RTR  --- 8 message 32 [0 ffffffff 5 800] ------- [5:255 -1:255 32 0] 
s 1.679333313 _9_ RTR  --- 9 message 32 [0 0 0 0] ------- [9:255 -1:255 32 0] 
r 1.680633501 _4_ RTR  --- 9 message 32 [0 ffffffff 9 800] ------- [9:255 -1:255 32 0] 
r 1.680633504 _6_ RTR  --- 9 message 32 [0 ffffffff 9 800] ------- [9:255 -1:255 32 0] 
r 1.680633588 _8_ RTR  --- 9 message 32 [0 ffffffff 9 800] ------- [9:255 -1:255 32 0] 
r 1.680633696 _1_ RTR  --- 9 message 32 [0 ffffffff 9 800] ------- [9:255 -1:255 32 0] 
r 1.680633718 _0_ RTR  --- 9 message 32 [0 ffffffff 9 800] ------- [9:255 -1:255 32 0] 
r 1.680633750 _2_ RTR  --- 9 message 32 [0 ffffffff 9 800] ------- [9:255 -1:255 32 0] 
r 1.680633794 _3_ RTR  --- 9 message 32 [0 ffffffff 9 800] ------- [9:255 -1:255 32 0] 
r 1.680633819 _5_ RTR  --- 9 message 32 [0 ffffffff 9 800] ------- [9:255 -1:255 32 0] 
r 1.680633959 _7_ RTR  --- 9 message 32 [0 ffffffff 9 800] ------- [9:255 -1:255 32 0] 
s 10.000000000 _1_ AGT  --- 10 tcp 40 [0 0 0 0] ------- [1:0 3:0 32 0] [0 0] 0 0
r 10.000000000 _1_ RTR  --- 10 tcp 40 [0 0 0 0] ------- [1:0 3:0 32 0] [0 0] 0 0
s 10.000000000 _1_ RTR  --- 10 tcp 60 [0 0 0 0] ------- [1:0 3:0 32 3] [0 0] 0 0
s 10.000000000 _2_ AGT  --- 11 tcp 40 [0 0 0 0] ------- [2:0 4:0 32 0] [0 0] 0 0
r 10.000000000 _2_ RTR  --- 11 tcp 40 [0 0 0 0] ------- [2:0 4:0 32 0] [0 0] 0 0
s 10.000000000 _2_ RTR  --- 11 tcp 60 [0 0 0 0] ------- [2:0 4:0 32 4] [0 0] 0 0
M 10.00000 5 (279.00, 6.00, 0.00), (485.00, 228.00), 5.00
r 10.005366792 _3_ AGT  --- 10 tcp 60 [13a 3 1 800] ------- [1:0 3:0 32 3] [0 0] 1 0
s 10.005366792 _3_ AGT  --- 12 ack 40 [0 0 0 0] ------- [3:0 1:0 32 0] [0 0] 0 0
r 10.005366792 _3_ RTR  --- 12 ack 40 [0 0 0 0] ------- [3:0 1:0 32 0] [0 0] 0 0
s 10.005366792 _3_ RTR  --- 12 ack 60 [0 0 0 0] ------- [3:0 1:0 32 1] [0 0] 0 0
r 10.009321309 _1_ AGT  --- 12 ack 60 [13a 1 3 800] ------- [3:0 1:0 32 1] [0 0] 1 0
s 10.009321309 _1_ AGT  --- 13 tcp 1040 [0 0 0 0] ------- [1:0 3:0 32 0] [1 0] 0 0
r 10.009321309 _1_ RTR  --- 13 tcp 1040 [0 0 0 0] ------- [1:0 3:0 32 0] [1 0] 0 0
s 10.009321309 _1_ RTR  --- 13 tcp 1060 [0 0 0 0] ------- [1:0 3:0 32 3] [1 0] 0 0
s 10.009321309 _1_ AGT  --- 14 tcp 1040 [0 0 0 0] ------- [1:0 3:0 32 0] [2 0] 0 0
r 10.009321309 _1_ RTR  --- 14 tcp 1040 [0 0 0 0] ------- [1:0 3:0 32 0] [2 0] 0 0
s 10.009321309 _1_ RTR  --- 14 tcp 1060 [0 0 0 0] ------- [1:0 3:0 32 3] [2 0] 0 0
r 10.019366504 _3_ AGT  --- 13 tcp 1060 [13a 3 1 800] ------- [1:0 3:0 32 3] [1 0] 1 0
s 10.019366504 _3_ AGT  --- 15 ack 40 [0 0 0 0] ------- [3:0 1:0 32 0] [1 0] 0 0
r 10.019366504 _3_ RTR  --- 15 ack 40 [0 0 0 0] ------- [3:0 1:0 32 0] [1 0] 0 0
s 10.019366504 _3_ RTR  --- 15 ack 60 [0 0 0 0] ------- [3:0 1:0 32 1] [1 0] 0 0
r 10.021531513 _4_ AGT  --- 11 tcp 60 [13a 4 2 800] ------- [2:0 4:0 32 4] [0 0] 1 0
s 10.021531513 _4_ AGT  --- 16 ack 40 [0 0 0 0] ------- [4:0 2:0 32 0] [0 0] 0 0
r 10.021531513 _4_ RTR  --- 16 ack 40 [0 0 0 0] ------- [4:0 2:0 32 0] [0 0] 0 0
s 10.021531513 _4_ RTR  --- 16 ack 60 [0 0 0 0] ------- [4:0 2:0 32 2] [0 0] 0 0
r 10.031577085 _3_ AGT  --- 14 tcp 1060 [13a 3 1 800] ------- [1:0 3:0 32 3] [2 0] 1 0
s 10.031577085 _3_ AGT  --- 17 ack 40 [0 0 0 0] ------- [3:0 1:0 32 0] [2 0] 0 0
r 10.031577085 _3_ RTR  --- 17 ack 40 [0 0 0 0] ------- [3:0 1:0 32 0] [2 0] 0 0
s 10.031577085 _3_ RTR  --- 17 ack 60 [0 0 0 0] ------- [3:0 1:0 32 1] [2 0] 0 0
r 10.033622292 _2_ AGT  --- 16 ack 60 [13a 2 4 800] ------- [4:0 2:0 32 2] [0 0] 1 0
s 10.033622292 _2_ AGT  --- 18 tcp 1040 [0 0 0 0] ------- [2:0 4:0 32 0] [1 0] 0 0
r 10.033622292 _2_ RTR  --- 18 tcp 1040 [0 0 0 0] ------- [2:0 4:0 32 0] [1 0] 0 0
s 10.033622292 _2_ RTR  --- 18 tcp 1060 [0 0 0 0] ------- [2:0 4:0 32 4] [1 0] 0 0
s 10.033622292 _2_ AGT  --- 19 tcp 1040 [0 0 0 0] ------- [2:0 4:0 32 0] [2 0] 0 0
r 10.033622292 _2_ RTR  --- 19 tcp 1040 [0 0 0 0] ------- [2:0 4:0 32 0] [2 0] 0 0
s 10.033622292 _2_ RTR  --- 19 tcp 1060 [0 0 0 0] ------- [2:0 4:0 32 4] [2 0] 0 0
r 10.035747601 _1_ AGT  --- 15 ack 60 [13a 1 3 800] ------- [3:0 1:0 32 1] [1 0] 1 0
s 10.035747601 _1_ AGT  --- 20 tcp 1040 [0 0 0 0] ------- [1:0 3:0 32 0] [3 0] 0 0
r 10.035747601 _1_ RTR  --- 20 tcp 1040 [0 0 0 0] ------- [1:0 3:0 32 0] [3 0] 0 0
s 10.035747601 _1_ RTR  --- 20 tcp 1060 [0 0 0 0] ------- [1:0 3:0 32 3] [3 0] 0 0
s 10.035747601 _1_ AGT  --- 21 tcp 1040 [0 0 0 0] ------- [1:0 3:0 32 0] [4 0] 0 0
r 10.035747601 _1_ RTR  --- 21 tcp 1040 [0 0 0 0] ------- [1:0 3:0 32 0] [4 0] 0 0
s 10.035747601 _1_ RTR  --- 21 tcp 1060 [0 0 0 0] ------- [1:0 3:0 32 3] [4 0] 0 0
r 10.045772784 _4_ AGT  --- 18 tcp 1060 [13a 4 2 800] ------- [2:0 4:0 32 4] [1 0] 1 0
s 10.045772784 _4_ AGT  --- 22 ack 40 [0 0 0 0] ------- [4:0 2:0 32 0] [1 0] 0 0
r 10.045772784 _4_ RTR  --- 22 ack 40 [0 0 0 0] ------- [4:0 2:0 32 0] [1 0] 0 0
s 10.045772784 _4_ RTR  --- 22 ack 60 [0 0 0 0] ------- [4:0 2:0 32 2] [1 0] 0 0
r 10.055838356 _3_ AGT  --- 20 tcp 1060 [13a 3 1 800] ------- [1:0 3:0 32 3] [3 0] 1 0
s 10.055838356 _3_ AGT  --- 23 ack 40 [0 0 0 0] ------- [3:0 1:0 32 0] [3 0] 0 0
r 10.055838356 _3_ RTR  --- 23 ack 40 [0 0 0 0] ------- [3:0 1:0 32 0] [3 0] 0 0
s 10.055838356 _3_ RTR  --- 23 ack 60 [0 0 0 0] ------- [3:0 1:0 32 1] [3 0] 0 0
r 10.065843364 _4_ AGT  --- 19 tcp 1060 [13a 4 2 800] ------- [2:0 4:0 32 4] [2 0] 1 0
s 10.065843364 _4_ AGT  --- 24 ack 40 [0 0 0 0] ------- [4:0 2:0 32 0] [2 0] 0 0
r 10.065843364 _4_ RTR  --- 24 ack 40 [0 0 0 0] ------- [4:0 2:0 32 0] [2 0] 0 0
s 10.065843364 _4_ RTR  --- 24 ack 60 [0 0 0 0] ------- [4:0 2:0 32 2] [2 0] 0 0
r 10.068775011 _2_ AGT  --- 22 ack 60 [13a 2 4 800] ------- [4:0 2:0 32 2] [1 0] 1 0
s 10.068775011 _2_ AGT  --- 25 tcp 1040 [0 0 0 0] ------- [2:0 4:0 32 0] [3 0] 0 0
r 10.068775011 _2_ RTR  --- 25 tcp 1040 [0 0 0 0] ------- [2:0 4:0 32 0] [3 0] 0 0
s 10.068775011 _2_ RTR  --- 25 tcp 1060 [0 0 0 0] ------- [2:0 4:0 32 4] [3 0] 0 0
s 10.068775011 _2_ AGT  --- 26 tcp 1040 [0 0 0 0] ------- [2:0 4:0 32 0] [4 0] 0 0
r 10.068775011 _2_ RTR  --- 26 tcp 1040 [0 0 0 0] ------- [2:0 4:0 32 0] [4 0] 0 0
s 10.068775011 _2_ RTR  --- 26 tcp 1060 [0 0 0 0] ------- [2:0 4:0 32 4] [4 0] 0 0
r 10.078839907 _4_ AGT  --- 25 tcp 1060 [13a 4 2 800] ------- [2:0 4:0 32 4] [3 0] 1 0
s 10.078839907 _4_ AGT  --- 27 ack 40 [0 0 0 0] ------- [4:0 2:0 32 0] [3 0] 0 0
r 10.078839907 _4_ RTR  --- 27 ack 40 [0 0 0 0] ------- [4:0 2:0 32 0] [3 0] 0 0
s 10.078839907 _4_ RTR  --- 27 ack 60 [0 0 0 0] ------- [4:0 2:0 32 2] [3 0] 0 0
r 10.080985414 _1_ AGT  --- 17 ack 60 [13a 1 3 800] ------- [3:0 1:0 32 1] [2 0] 1 0
s 10.080985414 _1_ AGT  --- 28 tcp 1040 [0 0 0 0] ------- [1:0 3:0 32 0] [5 0] 0 0
r 10.080985414 _1_ RTR  --- 28 tcp 1040 [0 0 0 0] ------- [1:0 3:0 32 0] [5 0] 0 0
s 10.080985414 _1_ RTR  --- 28 tcp 1060 [0 0 0 0] ------- [1:0 3:0 32 3] [5 0] 0 0
s 10.080985414 _1_ AGT  --- 29 tcp 1040 [0 0 0 0] ------- [1:0 3:0 32 0] [6 0] 0 0
r 10.080985414 _1_ RTR  --- 29 tcp 1040 [0 0 0 0] ------- [1:0 3:0 32 0] [6 0] 0 0
s 10.080985414 _1_ RTR  --- 29 tcp 1060 [0 0 0 0] ------- [1:0 3:0 32 3] [6 0] 0 0
r 10.083070686 _2_ AGT  --- 24 ack 60 [13a 2 4 800] ------- [4:0 2:0 32 2] [2 0] 1 0
s 10.083070686 _2_ AGT  --- 30 tcp 1040 [0 0 0 0] ------- [2:0 4:0 32 0] [5 0] 0 0
r 10.083070686 _2_ RTR  --- 30 tcp 1040 [0 0 0 0] ------- [2:0 4:0 32 0] [5 0] 0 0
s 10.083070686 _2_ RTR  --- 30 tcp 1060 [0 0 0 0] ------- [2:0 4:0 32 4] [5 0] 0 0
s 10.083070686 _2_ AGT  --- 31 tcp 1040 [0 0 0 0] ------- [2:0 4:0 32 0] [6 0] 0 0
r 10.083070686 _2_ RTR  --- 31 tcp 1040 [0 0 0 0] ------- [2:0 4:0 32 0] [6 0] 0 0
s 10.083070686 _2_ RTR  --- 31 tcp 1060 [0 0 0 0] ------- [2:0 4:0 32 4] [6 0] 0 0
r 10.085075995 _1_ AGT  --- 23 ack 60 [13a 1 3 800] ------- [3:0 1:0 32 1] [3 0] 1 0
s 10.085075995 _1_ AGT  --- 32 tcp 1040 [0 0 0 0] ------- [1:0 3:0 32 0] [7 0] 0 0
r 10.085075995 _1_ RTR  --- 32 tcp 1040 [0 0 0 0] ------- [1:0 3:0 32 0] [7 0] 0 0
s 10.085075995 _1_ RTR  --- 32 tcp 1060 [0 0 0 0] ------- [1:0 3:0 32 3] [7 0] 0 0
s 10.085075995 _1_ AGT  --- 33 tcp 1040 [0 0 0 0] ------- [1:0 3:0 32 0] [8 0] 0 0
r 10.085075995 _1_ RTR  --- 33 tcp 1040 [0 0 0 0] ------- [1:0 3:0 32 0] [8 0] 0 0
s 10.085075995 _1_ RTR  --- 33 tcp 1060 [0 0 0 0] ------- [1:0 3:0 32 3] [8 0] 0 0
r 10.087101266 _2_ AGT  --- 27 ack 60 [13a 2 4 800] ------- [4:0 2:0 32 2] [3 0] 1 0
s 10.087101266 _2_ AGT  --- 34 tcp 1040 [0 0 0 0] ------- [2:0 4:0 32 0] [7 0] 0 0
r 10.087101266 _2_ RTR  --- 34 tcp 1040 [0 0 0 0] ------- [2:0 4:0 32 0] [7 0] 0 0
s 10.087101266 _2_ RTR  --- 34 tcp 1060 [0 0 0 0] ------- [2:0 4:0 32 4] [7 0] 0 0
s 10.087101266 _2_ AGT  --- 35 tcp 1040 [0 0 0 0] ------- [2:0 4:0 32 0] [8 0] 0 0
r 10.087101266 _2_ RTR  --- 35 tcp 1040 [0 0 0 0] ------- [2:0 4:0 32 0] [8 0] 0 0
s 10.087101266 _2_ RTR  --- 35 tcp 1060 [0 0 0 0] ------- [2:0 4:0 32 4] [8 0] 0 0
r 10.097246749 _3_ AGT  --- 21 tcp 1060 [13a 3 1 800] ------- [1:0 3:0 32 3] [4 0] 1 0
s 10.097246749 _3_ AGT  --- 36 ack 40 [0 0 0 0] ------- [3:0 1:0 32 0] [4 0] 0 0
r 10.097246749 _3_ RTR  --- 36 ack 40 [0 0 0 0] ------- [3:0 1:0 32 0] [4 0] 0 0
s 10.097246749 _3_ RTR  --- 36 ack 60 [0 0 0 0] ------- [3:0 1:0 32 1] [4 0] 0 0
r 10.107351758 _4_ AGT  --- 26 tcp 1060 [13a 4 2 800] ------- [2:0 4:0 32 4] [4 0] 1 0
s 10.107351758 _4_ AGT  --- 37 ack 40 [0 0 0 0] ------- [4:0 2:0 32 0] [4 0] 0 0
r 10.107351758 _4_ RTR  --- 37 ack 40 [0 0 0 0] ------- [4:0 2:0 32 0] [4 0] 0 0
s 10.107351758 _4_ RTR  --- 37 ack 60 [0 0 0 0] ------- [4:0 2:0 32 2] [4 0] 0 0
r 10.109597265 _1_ AGT  --- 36 ack 60 [13a 1 3 800] ------- [3:0 1:0 32 1] [4 0] 1 0
s 10.109597265 _1_ AGT  --- 38 tcp 1040 [0 0 0 0] ------- [1:0 3:0 32 0] [9 0] 0 0
r 10.109597265 _1_ RTR  --- 38 tcp 1040 [0 0 0 0] ------- [1:0 3:0 32 0] [9 0] 0 0
s 10.109597265 _1_ RTR  --- 38 tcp 1060 [0 0 0 0] ------- [1:0 3:0 32 3] [9 0] 0 0
s 10.109597265 _1_ AGT  --- 39 tcp 1040 [0 0 0 0] ------- [1:0 3:0 32 0] [10 0] 0 0
r 10.109597265 _1_ RTR  --- 39 tcp 1040 [0 0 0 0] ------- [1:0 3:0 32 0] [10 0] 0 0
s 10.109597265 _1_ RTR  --- 39 tcp 1060 [0 0 0 0] ------- [1:0 3:0 32 3] [10 0] 0 0
r 10.111762537 _2_ AGT  --- 37 ack 60 [13a 2 4 800] ------- [4:0 2:0 32 2] [4 0] 1 0
s 10.111762537 _2_ AGT  --- 40 tcp 1040 [0 0 0 0] ------- [2:0 4:0 32 0] [9 0] 0 0
r 10.111762537 _2_ RTR  --- 40 tcp 1040 [0 0 0 0] ------- [2:0 4:0 32 0] [9 0] 0 0
s 10.111762537 _2_ RTR  --- 40 tcp 1060 [0 0 0 0] ------- [2:0 4:0 32 4] [9 0] 0 0
s 10.111762537 _2_ AGT  --- 41 tcp 1040 [0 0 0 0] ------- [2:0 4:0 32 0] [10 0] 0 0
r 10.111762537 _2_ RTR  --- 41 tcp 1040 [0 0 0 0] ------- [2:0 4:0 32 0] [10 0] 0 0
s 10.111762537 _2_ RTR  --- 41 tcp 1060 [0 0 0 0] ------- [2:0 4:0 32 4] [10 0] 0 0
r 10.121788020 _3_ AGT  --- 28 tcp 1060 [13a 3 1 800] ------- [1:0 3:0 32 3] [5 0] 1 0
s 10.121788020 _3_ AGT  --- 42 ack 40 [0 0 0 0] ------- [3:0 1:0 32 0] [5 0] 0 0
r 10.121788020 _3_ RTR  --- 42 ack 40 [0 0 0 0] ------- [3:0 1:0 32 0] [5 0] 0 0
s 10.121788020 _3_ RTR  --- 42 ack 60 [0 0 0 0] ------- [3:0 1:0 32 1] [5 0] 0 0
r 10.131833029 _4_ AGT  --- 30 tcp 1060 [13a 4 2 800] ------- [2:0 4:0 32 4] [5 0] 1 0
s 10.131833029 _4_ AGT  --- 43 ack 40 [0 0 0 0] ------- [4:0 2:0 32 0] [5 0] 0 0
r 10.131833029 _4_ RTR  --- 43 ack 40 [0 0 0 0] ------- [4:0 2:0 32 0] [5 0] 0 0
s 10.131833029 _4_ RTR  --- 43 ack 60 [0 0 0 0] ------- [4:0 2:0 32 2] [5 0] 0 0
r 10.133838536 _1_ AGT  --- 42 ack 60 [13a 1 3 800] ------- [3:0 1:0 32 1] [5 0] 1 0
s 10.133838536 _1_ AGT  --- 44 tcp 1040 [0 0 0 0] ------- [1:0 3:0 32 0] [11 0] 0 0
r 10.133838536 _1_ RTR  --- 44 tcp 1040 [0 0 0 0] ------- [1:0 3:0 32 0] [11 0] 0 0
s 10.133838536 _1_ RTR  --- 44 tcp 1060 [0 0 0 0] ------- [1:0 3:0 32 3] [11 0] 0 0
s 10.133838536 _1_ AGT  --- 45 tcp 1040 [0 0 0 0] ------- [1:0 3:0 32 0] [12 0] 0 0
r 10.133838536 _1_ RTR  --- 45 tcp 1040 [0 0 0 0] ------- [1:0 3:0 32 0] [12 0] 0 0
s 10.133838536 _1_ RTR  --- 45 tcp 1060 [0 0 0 0] ------- [1:0 3:0 32 3] [12 0] 0 0
r 10.136003808 _2_ AGT  --- 43 ack 60 [13a 2 4 800] ------- [4:0 2:0 32 2] [5 0] 1 0
s 10.136003808 _2_ AGT  --- 46 tcp 1040 [0 0 0 0] ------- [2:0 4:0 32 0] [11 0] 0 0
r 10.136003808 _2_ RTR  --- 46 tcp 1040 [0 0 0 0] ------- [2:0 4:0 32 0] [11 0] 0 0
s 10.136003808 _2_ RTR  --- 46 tcp 1060 [0 0 0 0] ------- [2:0 4:0 32 4] [11 0] 0 0
s 10.136003808 _2_ AGT  --- 47 tcp 1040 [0 0 0 0] ------- [2:0 4:0 32 0] [12 0] 0 0
r 10.136003808 _2_ RTR  --- 47 tcp 1040 [0 0 0 0] ------- [2:0 4:0 32 0] [12 0] 0 0
s 10.136003808 _2_ RTR  --- 47 tcp 1060 [0 0 0 0] ------- [2:0 4:0 32 4] [12 0] 0 0
r 10.146029291 _3_ AGT  --- 29 tcp 1060 [13a 3 1 800] ------- [1:0 3:0 32 3] [6 0] 1 0
s 10.146029291 _3_ AGT  --- 48 ack 40 [0 0 0 0] ------- [3:0 1:0 32 0] [6 0] 0 0
r 10.146029291 _3_ RTR  --- 48 ack 40 [0 0 0 0] ------- [3:0 1:0 32 0] [6 0] 0 0
s 10.146029291 _3_ RTR  --- 48 ack 60 [0 0 0 0] ------- [3:0 1:0 32 1] [6 0] 0 0
r 10.156114300 _4_ AGT  --- 31 tcp 1060 [13a 4 2 800] ------- [2:0 4:0 32 4] [6 0] 1 0
s 10.156114300 _4_ AGT  --- 49 ack 40 [0 0 0 0] ------- [4:0 2:0 32 0] [6 0] 0 0
r 10.156114300 _4_ RTR  --- 49 ack 40 [0 0 0 0] ------- [4:0 2:0 32 0] [6 0] 0 0
s 10.156114300 _4_ RTR  --- 49 ack 60 [0 0 0 0] ------- [4:0 2:0 32 2] [6 0] 0 0
r 10.166179871 _3_ AGT  --- 32 tcp 1060 [13a 3 1 800] ------- [1:0 3:0 32 3] [7 0] 1 0
s 10.166179871 _3_ AGT  --- 50 ack 40 [0 0 0 0] ------- [3:0 1:0 32 0] [7 0] 0 0
r 10.166179871 _3_ RTR  --- 50 ack 40 [0 0 0 0] ------- [3:0 1:0 32 0] [7 0] 0 0
s 10.166179871 _3_ RTR  --- 50 ack 60 [0 0 0 0] ------- [3:0 1:0 32 1] [7 0] 0 0
r 10.168205067 _1_ AGT  --- 48 ack 60 [13a 1 3 800] ------- [3:0 1:0 32 1] [6 0] 1 0
s 10.168205067 _1_ AGT  --- 51 tcp 1040 [0 0 0 0] ------- [1:0 3:0 32 0] [13 0] 0 0
r 10.168205067 _1_ RTR  --- 51 tcp 1040 [0 0 0 0] ------- [1:0 3:0 32 0] [13 0] 0 0
s 10.168205067 _1_ RTR  --- 51 tcp 1060 [0 0 0 0] ------- [1:0 3:0 32 3] [13 0] 0 0
s 10.168205067 _1_ AGT  --- 52 tcp 1040 [0 0 0 0] ------- [1:0 3:0 32 0] [14 0] 0 0
r 10.168205067 _1_ RTR  --- 52 tcp 1040 [0 0 0 0] ------- [1:0 3:0 32 0] [14 0] 0 0
s 10.168205067 _1_ RTR  --- 52 tcp 1060 [0 0 0 0] ------- [1:0 3:0 32 3] [14 0] 0 0
r 10.178230250 _4_ AGT  --- 34 tcp 1060 [13a 4 2 800] ------- [2:0 4:0 32 4] [7 0] 1 0
s 10.178230250 _4_ AGT  --- 53 ack 40 [0 0 0 0] ------- [4:0 2:0 32 0] [7 0] 0 0
r 10.178230250 _4_ RTR  --- 53 ack 40 [0 0 0 0] ------- [4:0 2:0 32 0] [7 0] 0 0
s 10.178230250 _4_ RTR  --- 53 ack 60 [0 0 0 0] ------- [4:0 2:0 32 2] [7 0] 0 0
r 10.188335444 _4_ AGT  --- 35 tcp 1060 [13a 4 2 800] ------- [2:0 4:0 32 4] [8 0] 1 0
s 10.188335444 _4_ AGT  --- 54 ack 40 [0 0 0 0] ------- [4:0 2:0 32 0] [8 0] 0 0
r 10.188335444 _4_ RTR  --- 54 ack 40 [0 0 0 0] ------- [4:0 2:0 32 0] [8 0] 0 0
s 10.188335444 _4_ RTR  --- 54 ack 60 [0 0 0 0] ------- [4:0 2:0 32 2] [8 0] 0 0
r 10.200133213 _4_ AGT  --- 40 tcp 1060 [13a 4 2 800] ------- [2:0 4:0 32 4] [9 0] 1 0
s 10.200133213 _4_ AGT  --- 55 ack 40 [0 0 0 0] ------- [4:0 2:0 32 0] [9 0] 0 0
r 10.200133213 _4_ RTR  --- 55 ack 40 [0 0 0 0] ------- [4:0 2:0 32 0] [9 0] 0 0
s 10.200133213 _4_ RTR  --- 55 ack 60 [0 0 0 0] ------- [4:0 2:0 32 2] [9 0] 0 0
r 10.210238785 _3_ AGT  --- 33 tcp 1060 [13a 3 1 800] ------- [1:0 3:0 32 3] [8 0] 1 0
s 10.210238785 _3_ AGT  --- 56 ack 40 [0 0 0 0] ------- [3:0 1:0 32 0] [8 0] 0 0
r 10.210238785 _3_ RTR  --- 56 ack 40 [0 0 0 0] ------- [3:0 1:0 32 0] [8 0] 0 0
s 10.210238785 _3_ RTR  --- 56 ack 60 [0 0 0 0] ------- [3:0 1:0 32 1] [8 0] 0 0
r 10.220423794 _4_ AGT  --- 41 tcp 1060 [13a 4 2 800] ------- [2:0 4:0 32 4] [10 0] 1 0
s 10.220423794 _4_ AGT  --- 57 ack 40 [0 0 0 0] ------- [4:0 2:0 32 0] [10 0] 0 0
r 10.220423794 _4_ RTR  --- 57 ack 40 [0 0 0 0] ------- [4:0 2:0 32 0] [10 0] 0 0
s 10.220423794 _4_ RTR  --- 57 ack 60 [0 0 0 0] ------- [4:0 2:0 32 2] [10 0] 0 0
r 10.230629365 _3_ AGT  --- 38 tcp 1060 [13a 3 1 800] ------- [1:0 3:0 32 3] [9 0] 1 0
s 10.230629365 _3_ AGT  --- 58 ack 40 [0 0 0 0] ------- [3:0 1:0 32 0] [9 0] 0 0
r 10.230629365 _3_ RTR  --- 58 ack 40 [0 0 0 0] ------- [3:0 1:0 32 0] [9 0] 0 0
s 10.230629365 _3_ RTR  --- 58 ack 60 [0 0 0 0] ------- [3:0 1:0 32 1] [9 0] 0 0
r 10.232874572 _2_ AGT  --- 49 ack 60 [13a 2 4 800] ------- [4:0 2:0 32 2] [6 0] 1 0
s 10.232874572 _2_ AGT  --- 59 tcp 1040 [0 0 0 0] ------- [2:0 4:0 32 0] [13 0] 0 0
r 10.232874572 _2_ RTR  --- 59 tcp 1040 [0 0 0 0] ------- [2:0 4:0 32 0] [13 0] 0 0
s 10.232874572 _2_ RTR  --- 59 tcp 1060 [0 0 0 0] ------- [2:0 4:0 32 4] [13 0] 0 0
s 10.232874572 _2_ AGT  --- 60 tcp 1040 [0 0 0 0] ------- [2:0 4:0 32 0] [14 0] 0 0
r 10.232874572 _2_ RTR  --- 60 tcp 1040 [0 0 0 0] ------- [2:0 4:0 32 0] [14 0] 0 0
s 10.232874572 _2_ RTR  --- 60 tcp 1060 [0 0 0 0] ------- [2:0 4:0 32 4] [14 0] 0 0
r 10.242879468 _4_ AGT  --- 46 tcp 1060 [13a 4 2 800] ------- [2:0 4:0 32 4] [11 0] 1 0
s 10.242879468 _4_ AGT  --- 61 ack 40 [0 0 0 0] ------- [4:0 2:0 32 0] [11 0] 0 0
r 10.242879468 _4_ RTR  --- 61 ack 40 [0 0 0 0] ------- [4:0 2:0 32 0] [11 0] 0 0
s 10.242879468 _4_ RTR  --- 61 ack 60 [0 0 0 0] ------- [4:0 2:0 32 2] [11 0] 0 0
r 10.252884661 _4_ AGT  --- 47 tcp 1060 [13a 4 2 800] ------- [2:0 4:0 32 4] [12 0] 1 0
s 10.252884661 _4_ AGT  --- 62 ack 40 [0 0 0 0] ------- [4:0 2:0 32 0] [12 0] 0 0
r 10.252884661 _4_ RTR  --- 62 ack 40 [0 0 0 0] ------- [4:0 2:0 32 0] [12 0] 0 0
s 10.252884661 _4_ RTR  --- 62 ack 60 [0 0 0 0] ------- [4:0 2:0 32 2] [12 0] 0 0
r 10.254890169 _1_ AGT  --- 50 ack 60 [13a 1 3 800] ------- [3:0 1:0 32 1] [7 0] 1 0
s 10.254890169 _1_ AGT  --- 63 tcp 1040 [0 0 0 0] ------- [1:0 3:0 32 0] [15 0] 0 0
r 10.254890169 _1_ RTR  --- 63 tcp 1040 [0 0 0 0] ------- [1:0 3:0 32 0] [15 0] 0 0
s 10.254890169 _1_ RTR  --- 63 tcp 1060 [0 0 0 0] ------- [1:0 3:0 32 3] [15 0] 0 0
s 10.254890169 _1_ AGT  --- 64 tcp 1040 [0 0 0 0] ------- [1:0 3:0 32 0] [16 0] 0 0
r 10.254890169 _1_ RTR  --- 64 tcp 1040 [0 0 0 0] ------- [1:0 3:0 32 0] [16 0] 0 0
s 10.254890169 _1_ RTR  --- 64 tcp 1060 [0 0 0 0] ------- [1:0 3:0 32 3] [16 0] 0 0
r 10.264895365 _3_ AGT  --- 39 tcp 1060 [13a 3 1 800] ------- [1:0 3:0 32 3] [10 0] 1 0
s 10.264895365 _3_ AGT  --- 65 ack 40 [0 0 0 0] ------- [3:0 1:0 32 0] [10 0] 0 0
r 10.264895365 _3_ RTR  --- 65 ack 40 [0 0 0 0] ------- [3:0 1:0 32 0] [10 0] 0 0
s 10.264895365 _3_ RTR  --- 65 ack 60 [0 0 0 0] ------- [3:0 1:0 32 1] [10 0] 0 0
r 10.274880959 _3_ AGT  --- 44 tcp 1060 [13a 3 1 800] ------- [1:0 3:0 32 3] [11 0] 1 0
s 10.274880959 _3_ AGT  --- 66 ack 40 [0 0 0 0] ------- [3:0 1:0 32 0] [11 0] 0 0
r 10.274880959 _3_ RTR  --- 66 ack 40 [0 0 0 0] ------- [3:0 1:0 32 0] [11 0] 0 0
s 10.274880959 _3_ RTR  --- 66 ack 60 [0 0 0 0] ------- [3:0 1:0 32 1] [11 0] 0 0
r 10.284926553 _3_ AGT  --- 45 tcp 1060 [13a 3 1 800] ------- [1:0 3:0 32 3] [12 0] 1 0
s 10.284926553 _3_ AGT  --- 67 ack 40 [0 0 0 0] ------- [3:0 1:0 32 0] [12 0] 0 0
r 10.284926553 _3_ RTR  --- 67 ack 40 [0 0 0 0] ------- [3:0 1:0 32 0] [12 0] 0 0
s 10.284926553 _3_ RTR  --- 67 ack 60 [0 0 0 0] ------- [3:0 1:0 32 1] [12 0] 0 0
r 10.286951749 _1_ AGT  --- 56 ack 60 [13a 1 3 800] ------- [3:0 1:0 32 1] [8 0] 1 0
s 10.286951749 _1_ AGT  --- 68 tcp 1040 [0 0 0 0] ------- [1:0 3:0 32 0] [17 0] 0 0
r 10.286951749 _1_ RTR  --- 68 tcp 1040 [0 0 0 0] ------- [1:0 3:0 32 0] [17 0] 0 0
s 10.286951749 _1_ RTR  --- 68 tcp 1060 [0 0 0 0] ------- [1:0 3:0 32 3] [17 0] 0 0
s 10.286951749 _1_ AGT  --- 69 tcp 1040 [0 0 0 0] ------- [1:0 3:0 32 0] [18 0] 0 0
r 10.286951749 _1_ RTR  --- 69 tcp 1040 [0 0 0 0] ------- [1:0 3:0 32 0] [18 0] 0 0
s 10.286951749 _1_ RTR  --- 69 tcp 1060 [0 0 0 0] ------- [1:0 3:0 32 3] [18 0] 0 0
r 10.288957020 _2_ AGT  --- 53 ack 60 [13a 2 4 800] ------- [4:0 2:0 32 2] [7 0] 1 0
s 10.288957020 _2_ AGT  --- 70 tcp 1040 [0 0 0 0] ------- [2:0 4:0 32 0] [15 0] 0 0
r 10.288957020 _2_ RTR  --- 70 tcp 1040 [0 0 0 0] ------- [2:0 4:0 32 0] [15 0] 0 0
s 10.288957020 _2_ RTR  --- 70 tcp 1060 [0 0 0 0] ------- [2:0 4:0 32 4] [15 0] 0 0
s 10.288957020 _2_ AGT  --- 71 tcp 1040 [0 0 0 0] ------- [2:0 4:0 32 0] [16 0] 0 0
r 10.288957020 _2_ RTR  --- 71 tcp 1040 [0 0 0 0] ------- [2:0 4:0 32 0] [16 0] 0 0
s 10.288957020 _2_ RTR  --- 71 tcp 1060 [0 0 0 0] ------- [2:0 4:0 32 4] [16 0] 0 0
r 10.299061915 _4_ AGT  --- 59 tcp 1060 [13a 4 2 800] ------- [2:0 4:0 32 4] [13 0] 1 0
s 10.299061915 _4_ AGT  --- 72 ack 40 [0 0 0 0] ------- [4:0 2:0 32 0] [13 0] 0 0
r 10.299061915 _4_ RTR  --- 72 ack 40 [0 0 0 0] ------- [4:0 2:0 32 0] [13 0] 0 0
s 10.299061915 _4_ RTR  --- 72 ack 60 [0 0 0 0] ------- [4:0 2:0 32 2] [13 0] 0 0
r 10.309067109 _4_ AGT  --- 60 tcp 1060 [13a 4 2 800] ------- [2:0 4:0 32 4] [14 0] 1 0
s 10.309067109 _4_ AGT  --- 73 ack 40 [0 0 0 0] ------- [4:0 2:0 32 0] [14 0] 0 0
r 10.309067109 _4_ RTR  --- 73 ack 40 [0 0 0 0] ------- [4:0 2:0 32 0] [14 0] 0 0
s 10.309067109 _4_ RTR  --- 73 ack 60 [0 0 0 0] ------- [4:0 2:0 32 2] [14 0] 0 0
r 10.319072303 _4_ AGT  --- 70 tcp 1060 [13a 4 2 800] ------- [2:0 4:0 32 4] [15 0] 1 0
s 10.319072303 _4_ AGT  --- 74 ack 40 [0 0 0 0] ------- [4:0 2:0 32 0] [15 0] 0 0
r 10.319072303 _4_ RTR  --- 74 ack 40 [0 0 0 0] ------- [4:0 2:0 32 0] [15 0] 0 0
s 10.319072303 _4_ RTR  --- 74 ack 60 [0 0 0 0] ------- [4:0 2:0 32 2] [15 0] 0 0
r 10.329117497 _4_ AGT  --- 71 tcp 1060 [13a 4 2 800] ------- [2:0 4:0 32 4] [16 0] 1 0
s 10.329117497 _4_ AGT  --- 75 ack 40 [0 0 0 0] ------- [4:0 2:0 32 0] [16 0] 0 0
r 10.329117497 _4_ RTR  --- 75 ack 40 [0 0 0 0] ------- [4:0 2:0 32 0] [16 0] 0 0
s 10.329117497 _4_ RTR  --- 75 ack 60 [0 0 0 0] ------- [4:0 2:0 32 2] [16 0] 0 0
r 10.331302392 _2_ AGT  --- 54 ack 60 [13a 2 4 800] ------- [4:0 2:0 32 2] [8 0] 1 0
s 10.331302392 _2_ AGT  --- 76 tcp 1040 [0 0 0 0] ------- [2:0 4:0 32 0] [17 0] 0 0
r 10.331302392 _2_ RTR  --- 76 tcp 1040 [0 0 0 0] ------- [2:0 4:0 32 0] [17 0] 0 0
s 10.331302392 _2_ RTR  --- 76 tcp 1060 [0 0 0 0] ------- [2:0 4:0 32 4] [17 0] 0 0
s 10.331302392 _2_ AGT  --- 77 tcp 1040 [0 0 0 0] ------- [2:0 4:0 32 0] [18 0] 0 0
r 10.331302392 _2_ RTR  --- 77 tcp 1040 [0 0 0 0] ------- [2:0 4:0 32 0] [18 0] 0 0
s 10.331302392 _2_ RTR  --- 77 tcp 1060 [0 0 0 0] ------- [2:0 4:0 32 4] [18 0] 0 0
r 10.333307586 _2_ AGT  --- 55 ack 60 [13a 2 4 800] ------- [4:0 2:0 32 2] [9 0] 1 0
s 10.333307586 _2_ AGT  --- 78 tcp 1040 [0 0 0 0] ------- [2:0 4:0 32 0] [19 0] 0 0
r 10.333307586 _2_ RTR  --- 78 tcp 1040 [0 0 0 0] ------- [2:0 4:0 32 0] [19 0] 0 0