V -t * -v 1.0a5 -a 0
W -t * -x 500 -y 500
A -t * -n 1 -p 0 -o 0x7fffffff -c 30 -a 1
A -t * -h 1 -m 1073741823 -s 0
n -t 0 -s 0 -S DLABEL -l "CH" -L ""
n -t 0 -s 1 -S DLABEL -l "Source01" -L ""
n -t 0 -s 2 -S DLABEL -l "Source02" -L ""
n -t 0 -s 3 -S DLABEL -l "Sink01" -L ""
n -t 0 -s 4 -S DLABEL -l "Sink02" -L ""
+ -t 0.030050775 -s 0 -d -1 -p message -e 32 -c 2 -a 0 -i 0 -k RTR 
- -t 0.030050775 -s 0 -d -1 -p message -e 32 -c 2 -a 0 -i 0 -k RTR
h -t 0.030050775 -s 0 -d -1 -p message -e 32 -c 2 -a 0 -i 0 -k RTR
r -t 0.031030883 -s 5 -d -1 -p message -e 32 -c 2 -a 0 -i 0 -k RTR
r -t 0.031030886 -s 1 -d -1 -p message -e 32 -c 2 -a 0 -i 0 -k RTR
r -t 0.031031002 -s 6 -d -1 -p message -e 32 -c 2 -a 0 -i 0 -k RTR
r -t 0.031031004 -s 8 -d -1 -p message -e 32 -c 2 -a 0 -i 0 -k RTR
r -t 0.031031173 -s 2 -d -1 -p message -e 32 -c 2 -a 0 -i 0 -k RTR
r -t 0.031031181 -s 9 -d -1 -p message -e 32 -c 2 -a 0 -i 0 -k RTR
r -t 0.031031220 -s 4 -d -1 -p message -e 32 -c 2 -a 0 -i 0 -k RTR
r -t 0.031031283 -s 3 -d -1 -p message -e 32 -c 2 -a 0 -i 0 -k RTR
r -t 0.031031309 -s 7 -d -1 -p message -e 32 -c 2 -a 0 -i 0 -k RTR
+ -t 0.184842620 -s 1 -d -1 -p message -e 32 -c 2 -a 0 -i 1 -k RTR 
- -t 0.184842620 -s 1 -d -1 -p message -e 32 -c 2 -a 0 -i 1 -k RTR
h -t 0.184842620 -s 1 -d -1 -p message -e 32 -c 2 -a 0 -i 1 -k RTR
r -t 0.186142730 -s 0 -d -1 -p message -e 32 -c 2 -a 0 -i 1 -k RTR
r -t 0.186142764 -s 8 -d -1 -p message -e 32 -c 2 -a 0 -i 1 -k RTR
r -t 0.186142771 -s 5 -d -1 -p message -e 32 -c 2 -a 0 -i 1 -k RTR
r -t 0.186142861 -s 6 -d -1 -p message -e 32 -c 2 -a 0 -i 1 -k RTR
r -t 0.186142907 -s 2 -d -1 -p message -e 32 -c 2 -a 0 -i 1 -k RTR
r -t 0.186142996 -s 4 -d -1 -p message -e 32 -c 2 -a 0 -i 1 -k RTR
r -t 0.186143003 -s 9 -d -1 -p message -e 32 -c 2 -a 0 -i 1 -k RTR
r -t 0.186143018 -s 3 -d -1 -p message -e 32 -c 2 -a 0 -i 1 -k RTR
r -t 0.186143048 -s 7 -d -1 -p message -e 32 -c 2 -a 0 -i 1 -k RTR
+ -t 0.477273789 -s 6 -d -1 -p message -e 32 -c 2 -a 0 -i 2 -k RTR 
- -t 0.477273789 -s 6 -d -1 -p message -e 32 -c 2 -a 0 -i 2 -k RTR
h -t 0.477273789 -s 6 -d -1 -p message -e 32 -c 2 -a 0 -i 2 -k RTR
r -t 0.478313981 -s 9 -d -1 -p message -e 32 -c 2 -a 0 -i 2 -k RTR
r -t 0.478313995 -s 8 -d -1 -p message -e 32 -c 2 -a 0 -i 2 -k RTR
r -t 0.478314016 -s 0 -d -1 -p message -e 32 -c 2 -a 0 -i 2 -k RTR
r -t 0.478314031 -s 1 -d -1 -p message -e 32 -c 2 -a 0 -i 2 -k RTR
r -t 0.478314090 -s 4 -d -1 -p message -e 32 -c 2 -a 0 -i 2 -k RTR
r -t 0.478314123 -s 5 -d -1 -p message -e 32 -c 2 -a 0 -i 2 -k RTR
r -t 0.478314209 -s 2 -d -1 -p message -e 32 -c 2 -a 0 -i 2 -k RTR
r -t 0.478314291 -s 3 -d -1 -p message -e 32 -c 2 -a 0 -i 2 -k RTR
r -t 0.478314401 -s 7 -d -1 -p message -e 32 -c 2 -a 0 -i 2 -k RTR
+ -t 0.623344604 -s 8 -d -1 -p message -e 32 -c 2 -a 0 -i 3 -k RTR 
- -t 0.623344604 -s 8 -d -1 -p message -e 32 -c 2 -a 0 -i 3 -k RTR
h -t 0.623344604 -s 8 -d -1 -p message -e 32 -c 2 -a 0 -i 3 -k RTR
r -t 0.624344748 -s 1 -d -1 -p message -e 32 -c 2 -a 0 -i 3 -k RTR
r -t 0.624344810 -s 6 -d -1 -p message -e 32 -c 2 -a 0 -i 3 -k RTR
r -t 0.624344819 -s 2 -d -1 -p message -e 32 -c 2 -a 0 -i 3 -k RTR
r -t 0.624344832 -s 0 -d -1 -p message -e 32 -c 2 -a 0 -i 3 -k RTR
r -t 0.624344836 -s 4 -d -1 -p message -e 32 -c 2 -a 0 -i 3 -k RTR
r -t 0.624344879 -s 9 -d -1 -p message -e 32 -c 2 -a 0 -i 3 -k RTR
r -t 0.624344898 -s 5 -d -1 -p message -e 32 -c 2 -a 0 -i 3 -k RTR
r -t 0.624344911 -s 3 -d -1 -p message -e 32 -c 2 -a 0 -i 3 -k RTR
r -t 0.624345011 -s 7 -d -1 -p message -e 32 -c 2 -a 0 -i 3 -k RTR
+ -t 0.634321795 -s 4 -d -1 -p message -e 32 -c 2 -a 0 -i 4 -k RTR 
- -t 0.634321795 -s 4 -d -1 -p message -e 32 -c 2 -a 0 -i 4 -k RTR
h -t 0.634321795 -s 4 -d -1 -p message -e 32 -c 2 -a 0 -i 4 -k RTR
r -t 0.635501983 -s 9 -d -1 -p message -e 32 -c 2 -a 0 -i 4 -k RTR
r -t 0.635502028 -s 8 -d -1 -p message -e 32 -c 2 -a 0 -i 4 -k RTR
r -t 0.635502094 -s 2 -d -1 -p message -e 32 -c 2 -a 0 -i 4 -k RTR
r -t 0.635502096 -s 6 -d -1 -p message -e 32 -c 2 -a 0 -i 4 -k RTR
r -t 0.635502107 -s 3 -d -1 -p message -e 32 -c 2 -a 0 -i 4 -k RTR
r -t 0.635502171 -s 1 -d -1 -p message -e 32 -c 2 -a 0 -i 4 -k RTR
r -t 0.635502240 -s 0 -d -1 -p message -e 32 -c 2 -a 0 -i 4 -k RTR
r -t 0.635502296 -s 7 -d -1 -p message -e 32 -c 2 -a 0 -i 4 -k RTR
r -t 0.635502320 -s 5 -d -1 -p message -e 32 -c 2 -a 0 -i 4 -k RTR
+ -t 0.889120254 -s 2 -d -1 -p message -e 32 -c 2 -a 0 -i 5 -k RTR 
- -t 0.889120254 -s 2 -d -1 -p message -e 32 -c 2 -a 0 -i 5 -k RTR
h -t 0.889120254 -s 2 -d -1 -p message -e 32 -c 2 -a 0 -i 5 -k RTR
r -t 0.890080367 -s 3 -d -1 -p message -e 32 -c 2 -a 0 -i 5 -k RTR
r -t 0.890080462 -s 7 -d -1 -p message -e 32 -c 2 -a 0 -i 5 -k RTR
r -t 0.890080469 -s 8 -d -1 -p message -e 32 -c 2 -a 0 -i 5 -k RTR
r -t 0.890080541 -s 1 -d -1 -p message -e 32 -c 2 -a 0 -i 5 -k RTR
r -t 0.890080552 -s 4 -d -1 -p message -e 32 -c 2 -a 0 -i 5 -k RTR
r -t 0.890080651 -s 0 -d -1 -p message -e 32 -c 2 -a 0 -i 5 -k RTR
r -t 0.890080670 -s 5 -d -1 -p message -e 32 -c 2 -a 0 -i 5 -k RTR
r -t 0.890080673 -s 6 -d -1 -p message -e 32 -c 2 -a 0 -i 5 -k RTR
r -t 0.890080691 -s 9 -d -1 -p message -e 32 -c 2 -a 0 -i 5 -k RTR
+ -t 1.278822271 -s 7 -d -1 -p message -e 32 -c 2 -a 0 -i 6 -k RTR 
- -t 1.278822271 -s 7 -d -1 -p message -e 32 -c 2 -a 0 -i 6 -k RTR
h -t 1.278822271 -s 7 -d -1 -p message -e 32 -c 2 -a 0 -i 6 -k RTR
r -t 1.279742480 -s 2 -d -1 -p message -e 32 -c 2 -a 0 -i 6 -k RTR
r -t 1.279742483 -s 3 -d -1 -p message -e 32 -c 2 -a 0 -i 6 -k RTR
r -t 1.279742678 -s 8 -d -1 -p message -e 32 -c 2 -a 0 -i 6 -k RTR
r -t 1.279742700 -s 1 -d -1 -p message -e 32 -c 2 -a 0 -i 6 -k RTR
r -t 1.279742772 -s 4 -d -1 -p message -e 32 -c 2 -a 0 -i 6 -k RTR
r -t 1.279742785 -s 5 -d -1 -p message -e 32 -c 2 -a 0 -i 6 -k RTR
r -t 1.279742805 -s 0 -d -1 -p message -e 32 -c 2 -a 0 -i 6 -k RTR
r -t 1.279742883 -s 6 -d -1 -p message -e 32 -c 2 -a 0 -i 6 -k RTR
r -t 1.279742917 -s 9 -d -1 -p message -e 32 -c 2 -a 0 -i 6 -k RTR
+ -t 1.607773557 -s 3 -d -1 -p message -e 32 -c 2 -a 0 -i 7 -k RTR 
- -t 1.607773557 -s 3 -d -1 -p message -e 32 -c 2 -a 0 -i 7 -k RTR
h -t 1.607773557 -s 3 -d -1 -p message -e 32 -c 2 -a 0 -i 7 -k RTR
r -t 1.609173670 -s 2 -d -1 -p message -e 32 -c 2 -a 0 -i 7 -k RTR
r -t 1.609173768 -s 7 -d -1 -p message -e 32 -c 2 -a 0 -i 7 -k RTR
r -t 1.609173864 -s 8 -d -1 -p message -e 32 -c 2 -a 0 -i 7 -k RTR
r -t 1.609173868 -s 4 -d -1 -p message -e 32 -c 2 -a 0 -i 7 -k RTR
r -t 1.609173955 -s 1 -d -1 -p message -e 32 -c 2 -a 0 -i 7 -k RTR
r -t 1.609174038 -s 9 -d -1 -p message -e 32 -c 2 -a 0 -i 7 -k RTR
r -t 1.609174059 -s 6 -d -1 -p message -e 32 -c 2 -a 0 -i 7 -k RTR
r -t 1.609174064 -s 0 -d -1 -p message -e 32 -c 2 -a 0 -i 7 -k RTR
r -t 1.609174087 -s 5 -d -1 -p message -e 32 -c 2 -a 0 -i 7 -k RTR
+ -t 1.633060186 -s 5 -d -1 -p message -e 32 -c 2 -a 0 -i 8 -k RTR 
- -t 1.633060186 -s 5 -d -1 -p message -e 32 -c 2 -a 0 -i 8 -k RTR
h -t 1.633060186 -s 5 -d -1 -p message -e 32 -c 2 -a 0 -i 8 -k RTR
r -t 1.634380293 -s 0 -d -1 -p message -e 32 -c 2 -a 0 -i 8 -k RTR
r -t 1.634380337 -s 1 -d -1 -p message -e 32 -c 2 -a 0 -i 8 -k RTR
r -t 1.634380481 -s 8 -d -1 -p message -e 32 -c 2 -a 0 -i 8 -k RTR
r -t 1.634380520 -s 6 -d -1 -p message -e 32 -c 2 -a 0 -i 8 -k RTR
r -t 1.634380603 -s 2 -d -1 -p message -e 32 -c 2 -a 0 -i 8 -k RTR
r -t 1.634380693 -s 9 -d -1 -p message -e 32 -c 2 -a 0 -i 8 -k RTR
r -t 1.634380700 -s 7 -d -1 -p message -e 32 -c 2 -a 0 -i 8 -k RTR
r -t 1.634380711 -s 4 -d -1 -p message -e 32 -c 2 -a 0 -i 8 -k RTR
r -t 1.634380716 -s 3 -d -1 -p message -e 32 -c 2 -a 0 -i 8 -k RTR
+ -t 1.679333313 -s 9 -d -1 -p message -e 32 -c 2 -a 0 -i 9 -k RTR 
- -t 1.679333313 -s 9 -d -1 -p message -e 32 -c 2 -a 0 -i 9 -k RTR
h -t 1.679333313 -s 9 -d -1 -p message -e 32 -c 2 -a 0 -i 9 -k RTR
r -t 1.680633501 -s 4 -d -1 -p message -e 32 -c 2 -a 0 -i 9 -k RTR
r -t 1.680633504 -s 6 -d -1 -p message -e 32 -c 2 -a 0 -i 9 -k RTR
r -t 1.680633588 -s 8 -d -1 -p message -e 32 -c 2 -a 0 -i 9 -k RTR
r -t 1.680633696 -s 1 -d -1 -p message -e 32 -c 2 -a 0 -i 9 -k RTR
r -t 1.680633718 -s 0 -d -1 -p message -e 32 -c 2 -a 0 -i 9 -k RTR
r -t 1.680633750 -s 2 -d -1 -p message -e 32 -c 2 -a 0 -i 9 -k RTR
r -t 1.680633794 -s 3 -d -1 -p message -e 32 -c 2 -a 0 -i 9 -k RTR
r -t 1.680633819 -s 5 -d -1 -p message -e 32 -c 2 -a 0 -i 9 -k RTR
r -t 1.680633959 -s 7 -d -1 -p message -e 32 -c 2 -a 0 -i 9 -k RTR
+ -t 10.000000000 -s 1 -d -1 -p tcp -e 40 -c 2 -a 0 -i 10 -k AGT 
- -t 10.000000000 -s 1 -d -1 -p tcp -e 40 -c 2 -a 0 -i 10 -k AGT
h -t 10.000000000 -s 1 -d -1 -p tcp -e 40 -c 2 -a 0 -i 10 -k AGT
+ -t 10.000000000 -s 1 -d 3 -p tcp -e 60 -c 2 -a 0 -i 10 -k RTR 
- -t 10.000000000 -s 1 -d 3 -p tcp -e 60 -c 2 -a 0 -i 10 -k RTR
h -t 10.000000000 -s 1 -d 3 -p tcp -e 60 -c 2 -a 0 -i 10 -k RTR
+ -t 10.000000000 -s 2 -d -1 -p tcp -e 40 -c 2 -a 0 -i 11 -k AGT 
- -t 10.000000000 -s 2 -d -1 -p tcp -e 40 -c 2 -a 0 -i 11 -k AGT
h -t 10.000000000 -s 2 -d -1 -p tcp -e 40 -c 2 -a 0 -i 11 -k AGT
+ -t 10.000000000 -s 2 -d 4 -p tcp -e 60 -c 2 -a 0 -i 11 -k RTR 
- -t 10.000000000 -s 2 -d 4 -p tcp -e 60 -c 2 -a 0 -i 11 -k RTR
h -t 10.000000000 -s 2 -d 4 -p tcp -e 60 -c 2 -a 0 -i 11 -k RTR
n -t 10.000000 -s 5 -x 279.000000 -y 6.000000 -U 3.400989 -V 3.665143 -T 60.570620
r -t 10.005366792 -s 3 -d 3 -p tcp -e 60 -c 2 -a 0 -i 10 -k AGT
+ -t 10.005366792 -s 3 -d -1 -p ack -e 40 -c 2 -a 0 -i 12 -k AGT 
- -t 10.005366792 -s 3 -d -1 -p ack -e 40 -c 2 -a 0 -i 12 -k AGT
h -t 10.005366792 -s 3 -d -1 -p ack -e 40 -c 2 -a 0 -i 12 -k AGT
+ -t 10.005366792 -s 3 -d 1 -p ack -e 60 -c 2 -a 0 -i 12 -k RTR 
- -t 10.005366792 -s 3 -d 1 -p ack -e 60 -c 2 -a 0 -i 12 -k RTR
h -t 10.005366792 -s 3 -d 1 -p ack -e 60 -c 2 -a 0 -i 12 -k RTR
r -t 10.009321309 -s 1 -d 1 -p ack -e 60 -c 2 -a 0 -i 12 -k AGT
+ -t 10.009321309 -s 1 -d -1 -p tcp -e 1040 -c 2 -a 0 -i 13 -k AGT 
- -t 10.009321309 -s 1 -d -1 -p tcp -e 1040 -c 2 -a 0 -i 13 -k AGT
h -t 10.009321309 -s 1 -d -1 -p tcp -e 1040 -c 2 -a 0 -i 13 -k AGT
+ -t 10.009321309 -s 1 -d 3 -p tcp -e 1060 -c 2 -a 0 -i 13 -k RTR 
- -t 10.009321309 -s 1 -d 3 -p tcp -e 1060 -c 2 -a 0 -i 13 -k RTR
h -t 10.009321309 -s 1 -d 3 -p tcp -e 1060 -c 2 -a 0 -i 13 -k RTR
+ -t 10.009321309 -s 1 -d -1 -p tcp -e 1040 -c 2 -a 0 -i 14 -k AGT 
- -t 10.009321309 -s 1 -d -1 -p tcp -e 1040 -c 2 -a 0 -i 14 -k AGT
h -t 10.009321309 -s 1 -d -1 -p tcp -e 1040 -c 2 -a 0 -i 14 -k AGT
+ -t 10.009321309 -s 1 -d 3 -p tcp -e 1060 -c 2 -a 0 -i 14 -k RTR 
- -t 10.009321309 -s 1 -d 3 -p tcp -e 1060 -c 2 -a 0 -i 14 -k RTR
h -t 10.009321309 -s 1 -d 3 -p tcp -e 1060 -c 2 -a 0 -i 14 -k RTR
r -t 10.019366504 -s 3 -d 3 -p tcp -e 1060 -c 2 -a 0 -i 13 -k AGT
+ -t 10.019366504 -s 3 -d -1 -p ack -e 40 -c 2 -a 0 -i 15 -k AGT 
- -t 10.019366504 -s 3 -d -1 -p ack -e 40 -c 2 -a 0 -i 15 -k AGT
h -t 10.019366504 -s 3 -d -1 -p ack -e 40 -c 2 -a 0 -i 15 -k AGT
+ -t 10.019366504 -s 3 -d 1 -p ack -e 60 -c 2 -a 0 -i 15 -k RTR 
- -t 10.019366504 -s 3 -d 1 -p ack -e 60 -c 2 -a 0 -i 15 -k RTR
h -t 10.019366504 -s 3 -d 1 -p ack -e 60 -c 2 -a 0 -i 15 -k RTR
r -t 10.021531513 -s 4 -d 4 -p tcp -e 60 -c 2 -a 0 -i 11 -k AGT
+ -t 10.021531513 -s 4 -d -1 -p ack -e 40 -c 2 -a 0 -i 16 -k AGT 
- -t 10.021531513 -s 4 -d -1 -p ack -e 40 -c 2 -a 0 -i 16 -k AGT
h -t 10.021531513 -s 4 -d -1 -p ack -e 40 -c 2 -a 0 -i 16 -k AGT
+ -t 10.021531513 -s 4 -d 2 -p ack -e 60 -c 2 -a 0 -i 16 -k RTR 
- -t 10.021531513 -s 4 -d 2 -p ack -e 60 -c 2 -a 0 -i 16 -k RTR
h -t 10.021531513 -s 4 -d 2 -p ack -e 60 -c 2 -a 0 -i 16 -k RTR
r -t 10.031577085 -s 3 -d 3 -p tcp -e 1060 -c 2 -a 0 -i 14 -k AGT
+ -t 10.031577085 -s 3 -d -1 -p ack -e 40 -c 2 -a 0 -i 17 -k AGT 
- -t 10.031577085 -s 3 -d -1 -p ack -e 40 -c 2 -a 0 -i 17 -k AGT
h -t 10.031577085 -s 3 -d -1 -p ack -e 40 -c 2 -a 0 -i 17 -k AGT
+ -t 10.031577085 -s 3 -d 1 -p ack -e 60 -c 2 -a 0 -i 17 -k RTR 
- -t 10.031577085 -s 3 -d 1 -p ack -e 60 -c 2 -a 0 -i 17 -k RTR
h -t 10.031577085 -s 3 -d 1 -p ack -e 60 -c 2 -a 0 -i 17 -k RTR
r -t 10.033622292 -s 2 -d 2 -p ack -e 60 -c 2 -a 0 -i 16 -k AGT
+ -t 10.033622292 -s 2 -d -1 -p tcp -e 1040 -c 2 -a 0 -i 18 -k AGT 
- -t 10.033622292 -s 2 -d -1 -p tcp -e 1040 -c 2 -a 0 -i 18 -k AGT
h -t 10.033622292 -s 2 -d -1 -p tcp -e 1040 -c 2 -a 0 -i 18 -k AGT
+ -t 10.033622292 -s 2 -d 4 -p tcp -e 1060 -c 2 -a 0 -i 18 -k RTR 
- -t 10.033622292 -s 2 -d 4 -p tcp -e 1060 -c 2 -a 0 -i 18 -k RTR
h -t 10.033622292 -s 2 -d 4 -p tcp -e 1060 -c 2 -a 0 -i 18 -k RTR
+ -t 10.033622292 -s 2 -d -1 -p tcp -e 1040 -c 2 -a 0 -i 19 -k AGT 
- -t 10.033622292 -s 2 -d -1 -p tcp -e 1040 -c 2 -a 0 -i 19 -k AGT
h -t 10.033622292 -s 2 -d -1 -p tcp -e 1040 -c 2 -a 0 -i 19 -k AGT
+ -t 10.033622292 -s 2 -d 4 -p tcp -e 1060 -c 2 -a 0 -i 19 -k RTR 
- -t 10.033622292 -s 2 -d 4 -p tcp -e 1060 -c 2 -a 0 -i 19 -k RTR
h -t 10.033622292 -s 2 -d 4 -p tcp -e 1060 -c 2 -a 0 -i 19 -k RTR
r -t 10.035747601 -s 1 -d 1 -p ack -e 60 -c 2 -a 0 -i 15 -k AGT
+ -t 10.035747601 -s 1 -d -1 -p tcp -e 1040 -c 2 -a 0 -i 20 -k AGT 
- -t 10.035747601 -s 1 -d -1 -p tcp -e 1040 -c 2 -a 0 -i 20 -k AGT
h -t 10.035747601 -s 1 -d -1 -p tcp -e 1040 -c 2 -a 0 -i 20 -k AGT
+ -t 10.035747601 -s 1 -d 3 -p tcp -e 1060 -c 2 -a 0 -i 20 -k RTR 
- -t 10.035747601 -s 1 -d 3 -p tcp -e 1060 -c 2 -a 0 -i 20 -k RTR
h -t 10.035747601 -s 1 -d 3 -p tcp -e 1060 -c 2 -a 0 -i 20 -k RTR
+ -t 10.035747601 -s 1 -d -1 -p tcp -e 1040 -c 2 -a 0 -i 21 -k AGT 
- -t 10.035747601 -s 1 -d -1 -p tcp -e 1040 -c 2 -a 0 -i 21 -k AGT
h -t 10.035747601 -s 1 -d -1 -p tcp -e 1040 -c 2 -a 0 -i 21 -k AGT
+ -t 10.035747601 -s 1 -d 3 -p tcp -e 1060 -c 2 -a 0 -i 21 -k RTR 
- -t 10.035747601 -s 1 -d 3 -p tcp -e 1060 -c 2 -a 0 -i 21 -k RTR
h -t 10.035747601 -s 1 -d 3 -p tcp -e 1060 -c 2 -a 0 -i 21 -k RTR
r -t 10.045772784 -s 4 -d 4 -p tcp -e 1060 -c 2 -a 0 -i 18 -k AGT
+ -t 10.045772784 -s 4 -d -1 -p ack -e 40 -c 2 -a 0 -i 22 -k AGT 
- -t 10.045772784 -s 4 -d -1 -p ack -e 40 -c 2 -a 0 -i 22 -k AGT
h -t 10.045772784 -s 4 -d -1 -p ack -e 40 -c 2 -a 0 -i 22 -k AGT
+ -t 10.045772784 -s 4 -d 2 -p ack -e 60 -c 2 -a 0 -i 22 -k RTR 
- -t 10.045772784 -s 4 -d 2 -p ack -e 60 -c 2 -a 0 -i 22 -k RTR
h -t 10.045772784 -s 4 -d 2 -p ack -e 60 -c 2 -a 0 -i 22 -k RTR
r -t 10.055838356 -s 3 -d 3 -p tcp -e 1060 -c 2 -a 0 -i 20 -k AGT
+ -t 10.055838356 -s 3 -d -1 -p ack -e 40 -c 2 -a 0 -i 23 -k AGT 
- -t 10.055838356 -s 3 -d -1 -p ack -e 40 -c 2 -a 0 -i 23 -k AGT
h -t 10.055838356 -s 3 -d -1 -p ack -e 40 -c 2 -a 0 -i 23 -k AGT
+ -t 10.055838356 -s 3 -d 1 -p ack -e 60 -c 2 -a 0 -i 23 -k RTR 
- -t 10.055838356 -s 3 -d 1 -p ack -e 60 -c 2 -a 0 -i 23 -k RTR
h -t 10.055838356 -s 3 -d 1 -p ack -e 60 -c 2 -a 0 -i 23 -k RTR
r -t 10.065843364 -s 4 -d 4 -p tcp -e 1060 -c 2 -a 0 -i 19 -k AGT
+ -t 10.065843364 -s 4 -d -1 -p ack -e 40 -c 2 -a 0 -i 24 -k AGT 
- -t 10.065843364 -s 4 -d -1 -p ack -e 40 -c 2 -a 0 -i 24 -k AGT
h -t 10.065843364 -s 4 -d -1 -p ack -e 40 -c 2 -a 0 -i 24 -k AGT
+ -t 10.065843364 -s 4 -d 2 -p ack -e 60 -c 2 -a 0 -i 24 -k RTR 
- -t 10.065843364 -s 4 -d 2 -p ack -e 60 -c 2 -a 0 -i 24 -k RTR
h -t 10.065843364 -s 4 -d 2 -p ack -e 60 -c 2 -a 0 -i 24 -k RTR
r -t 10.068775011 -s 2 -d 2 -p ack -e 60 -c 2 -a 0 -i 22 -k AGT
+ -t 10.068775011 -s 2 -d -1 -p tcp -e 1040 -c 2 -a 0 -i 25 -k AGT 
- -t 10.068775011 -s 2 -d -1 -p tcp -e 1040 -c 2 -a 0 -i 25 -k AGT
h -t 10.068775011 -s 2 -d -1 -p tcp -e 1040 -c 2 -a 0 -i 25 -k AGT
+ -t 10.068775011 -s 2 -d 4 -p tcp -e 1060 -c 2 -a 0 -i 25 -k RTR 
- -t 10.068775011 -s 2 -d 4 -p tcp -e 1060 -c 2 -a 0 -i 25 -k RTR
h -t 10.068775011 -s 2 -d 4 -p tcp -e 1060 -c 2 -a 0 -i 25 -k RTR
+ -t 10.068775011 -s 2 -d -1 -p tcp -e 1040 -c 2 -a 0 -i 26 -k AGT 
- -t 10.068775011 -s 2 -d -1 -p tcp -e 1040 -c 2 -a 0 -i 26 -k AGT
h -t 10.068775011 -s 2 -d -1 -p tcp -e 1040 -c 2 -a 0 -i 26 -k AGT
+ -t 10.068775011 -s 2 -d 4 -p tcp -e 1060 -c 2 -a 0 -i 26 -k RTR 
- -t 10.068775011 -s 2 -d 4 -p tcp -e 1060 -c 2 -a 0 -i 26 -k RTR
h -t 10.068775011 -s 2 -d 4 -p tcp -e 1060 -c 2 -a 0 -i 26 -k RTR
r -t 10.078839907 -s 4 -d 4 -p tcp -e 1060 -c 2 -a 0 -i 25 -k AGT
+ -t 10.078839907 -s 4 -d -1 -p ack -e 40 -c 2 -a 0 -i 27 -k AGT 
- -t 10.078839907 -s 4 -d -1 -p ack -e 40 -c 2 -a 0 -i 27 -k AGT
h -t 10.078839907 -s 4 -d -1 -p ack -e 40 -c 2 -a 0 -i 27 -k AGT
+ -t 10.078839907 -s 4 -d 2 -p ack -e 60 -c 2 -a 0 -i 27 -k RTR 
- -t 10.078839907 -s 4 -d 2 -p ack -e 60 -c 2 -a 0 -i 27 -k RTR
h -t 10.078839907 -s 4 -d 2 -p ack -e 60 -c 2 -a 0 -i 27 -k RTR
r -t 10.080985414 -s 1 -d 1 -p ack -e 60 -c 2 -a 0 -i 17 -k AGT
+ -t 10.080985414 -s 1 -d -1 -p tcp -e 1040 -c 2 -a 0 -i 28 -k AGT 
- -t 10.080985414 -s 1 -d -1 -p tcp -e 1040 -c 2 -a 0 -i 28 -k AGT
h -t 10.080985414 -s 1 -d -1 -p tcp -e 1040 -c 2 -a 0 -i 28 -k AGT
+ -t 10.080985414 -s 1 -d 3 -p tcp -e 1060 -c 2 -a 0 -i 28 -k RTR 
- -t 10.080985414 -s 1 -d 3 -p tcp -e 1060 -c 2 -a 0 -i 28 -k RTR
h -t 10.080985414 -s 1 -d 3 -p tcp -e 1060 -c 2 -a 0 -i 28 -k RTR
+ -t 10.080985414 -s 1 -d -1 -p tcp -e 1040 -c 2 -a 0 -i 29 -k AGT 
- -t 10.080985414 -s 1 -d -1 -p tcp -e 1040 -c 2 -a 0 -i 29 -k AGT
h -t 10.080985414 -s 1 -d -1 -p tcp -e 1040 -c 2 -a 0 -i 29 -k AGT
+ -t 10.080985414 -s 1 -d 3 -p tcp -e 1060 -c 2 -a 0 -i 29 -k RTR 
- -t 10.080985414 -s 1 -d 3 -p tcp -e 1060 -c 2 -a 0 -i 29 -k RTR
h -t 10.080985414 -s 1 -d 3 -p tcp -e 1060 -c 2 -a 0 -i 29 -k RTR
r -t 10.083070686 -s 2 -d 2 -p ack -e 60 -c 2 -a 0 -i 24 -k AGT
+ -t 10.083070686 -s 2 -d -1 -p tcp -e 1040 -c 2 -a 0 -i 30 -k AGT 
- -t 10.083070686 -s 2 -d -1 -p tcp -e 1040 -c 2 -a 0 -i 30 -k AGT
h -t 10.083070686 -s 2 -d -1 -p tcp -e 1040 -c 2 -a 0 -i 30 -k AGT
+ -t 10.083070686 -s 2 -d 4 -p tcp -e 1060 -c 2 -a 0 -i 30 -k RTR 
- -t 10.083070686 -s 2 -d 4 -p tcp -e 1060 -c 2 -a 0 -i 30 -k RTR
h -t 10.083070686 -s 2 -d 4 -p tcp -e 1060 -c 2 -a 0 -i 30 -k RTR
+ -t 10.083070686 -s 2 -d -1 -p tcp -e 1040 -c 2 -a 0 -i 31 -k AGT 
- -t 10.083070686 -s 2 -d -1 -p tcp -e 1040 -c 2 -a 0 -i 31 -k AGT
h -t 10.083070686 -s 2 -d -1 -p tcp -e 1040 -c 2 -a 0 -i 31 -k AGT
+ -t 10.083070686 -s 2 -d 4 -p tcp -e 1060 -c 2 -a 0 -i 31 -k RTR 
- -t 10.083070686 -s 2 -d 4 -p tcp -e 1060 -c 2 -a 0 -i 31 -k RTR
h -t 10.083070686 -s 2 -d 4 -p tcp -e 1060 -c 2 -a 0 -i 31 -k RTR
r -t 10.085075995 -s 1 -d 1 -p ack -e 60 -c 2 -a 0 -i 23 -k AGT
+ -t 10.085075995 -s 1 -d -1 -p tcp -e 1040 -c 2 -a 0 -i 32 -k AGT 
- -t 10.085075995 -s 1 -d -1 -p tcp -e 1040 -c 2 -a 0 -i 32 -k AGT
h -t 10.085075995 -s 1 -d -1 -p tcp -e 1040 -c 2 -a 0 -i 32 -k AGT
+ -t 10.085075995 -s 1 -d 3 -p tcp -e 1060 -c 2 -a 0 -i 32 -k RTR 
- -t 10.085075995 -s 1 -d 3 -p tcp -e 1060 -c 2 -a 0 -i 32 -k RTR
h -t 10.085075995 -s 1 -d 3 -p tcp -e 1060 -c 2 -a 0 -i 32 -k RTR
+ -t 10.085075995 -s 1 -d -1 -p tcp -e 1040 -c 2 -a 0 -i 33 -k AGT 
- -t 10.085075995 -s 1 -d -1 -p tcp -e 1040 -c 2 -a 0 -i 33 -k AGT
h -t 10.085075995 -s 1 -d -1 -p tcp -e 1040 -c 2 -a 0 -i 33 -k AGT
+ -t 10.085075995 -s 1 -d 3 -p tcp -e 1060 -c 2 -a 0 -i 33 -k RTR 
- -t 10.085075995 -s 1 -d 3 -p tcp -e 1060 -c 2 -a 0 -i 33 -k RTR
h -t 10.085075995 -s 1 -d 3 -p tcp -e 1060 -c 2 -a 0 -i 33 -k RTR
r -t 10.087101266 -s 2 -d 2 -p ack -e 60 -c 2 -a 0 -i 27 -k AGT
+ -t 10.087101266 -s 2 -d -1 -p tcp -e 1040 -c 2 -a 0 -i 34 -k AGT 
- -t 10.087101266 -s 2 -d -1 -p tcp -e 1040 -c 2 -a 0 -i 34 -k AGT
h -t 10.087101266 -s 2 -d -1 -p tcp -e 1040 -c 2 -a 0 -i 34 -k AGT
+ -t 10.087101266 -s 2 -d 4 -p tcp -e 1060 -c 2 -a 0 -i 34 -k RTR 
- -t 10.087101266 -s 2 -d 4 -p tcp -e 1060 -c 2 -a 0 -i 34 -k RTR
h -t 10.087101266 -s 2 -d 4 -p tcp -e 1060 -c 2 -a 0 -i 34 -k RTR
+ -t 10.087101266 -s 2 -d -1 -p tcp -e 1040 -c 2 -a 0 -i 35 -k AGT 
- -t 10.087101266 -s 2 -d -1 -p tcp -e 1040 -c 2 -a 0 -i 35 -k AGT
h -t 10.087101266 -s 2 -d -1 -p tcp -e 1040 -c 2 -a 0 -i 35 -k AGT
+ -t 10.087101266 -s 2 -d 4 -p tcp -e 1060 -c 2 -a 0 -i 35 -k RTR 
- -t 10.087101266 -s 2 -d 4 -p tcp -e 1060 -c 2 -a 0 -i 35 -k RTR
h -t 10.087101266 -s 2 -d 4 -p tcp -e 1060 -c 2 -a 0 -i 35 -k RTR
r -t 10.097246749 -s 3 -d 3 -p tcp -e 1060 -c 2 -a 0 -i 21 -k AGT
+ -t 10.097246749 -s 3 -d -1 -p ack -e 40 -c 2 -a 0 -i 36 -k AGT 
- -t 10.097246749 -s 3 -d -1 -p ack -e 40 -c 2 -a 0 -i 36 -k AGT
h -t 10.097246749 -s 3 -d -1 -p ack -e 40 -c 2 -a 0 -i 36 -k AGT
+ -t 10.097246749 -s 3 -d 1 -p ack -e 60 -c 2 -a 0 -i 36 -k RTR 
- -t 10.097246749 -s 3 -d 1 -p ack -e 60 -c 2 -a 0 -i 36 -k RTR
h -t 10.097246749 -s 3 -d 1 -p ack -e 60 -c 2 -a 0 -i 36 -k RTR
r -t 10.107351758 -s 4 -d 4 -p tcp -e 1060 -c 2 -a 0 -i 26 -k AGT
+ -t 10.107351758 -s 4 -d -1 -p ack -e 40 -c 2 -a 0 -i 37 -k AGT 
- -t 10.107351758 -s 4 -d -1 -p ack -e 40 -c 2 -a 0 -i 37 -k AGT
h -t 10.107351758 -s 4 -d -1 -p ack -e 40 -c 2 -a 0 -i 37 -k AGT
+ -t 10.107351758 -s 4 -d 2 -p ack -e 60 -c 2 -a 0 -i 37 -k RTR 
- -t 10.107351758 -s 4 -d 2 -p ack -e 60 -c 2 -a 0 -i 37 -k RTR
h -t 10.107351758 -s 4 -d 2 -p ack -e 60 -c 2 -a 0 -i 37 -k RTR
r -t 10.109597265 -s 1 -d 1 -p ack -e 60 -c 2 -a 0 -i 36 -k AGT
+ -t 10.109597265 -s 1 -d -1 -p tcp -e 1040 -c 2 -a 0 -i 38 -k AGT 
- -t 10.109597265 -s 1 -d -1 -p tcp -e 1040 -c 2 -a 0 -i 38 -k AGT
h -t 10.109597265 -s 1 -d -1 -p tcp -e 1040 -c 2 -a 0 -i 38 -k AGT
+ -t 10.109597265 -s 1 -d 3 -p tcp -e 1060 -c 2 -a 0 -i 38 -k RTR 
- -t 10.109597265 -s 1 -d 3 -p tcp -e 1060 -c 2 -a 0 -i 38 -k RTR
h -t 10.109597265 -s 1 -d 3 -p tcp -e 1060 -c 2 -a 0 -i 38 -k RTR
+ -t 10.109597265 -s 1 -d -1 -p tcp -e 1040 -c 2 -a 0 -i 39 -k AGT 
- -t 10.109597265 -s 1 -d -1 -p tcp -e 1040 -c 2 -a 0 -i 39 -k AGT
h -t 10.109597265 -s 1 -d -1 -p tcp -e 1040 -c 2 -a 0 -i 39 -k AGT
+ -t 10.109597265 -s 1 -d 3 -p tcp -e 1060 -c 2 -a 0 -i 39 -k RTR 
- -t 10.109597265 -s 1 -d 3 -p tcp -e 1060 -c 2 -a 0 -i 39 -k RTR
h -t 10.109597265 -s 1 -d 3 -p tcp -e 1060 -c 2 -a 0 -i 39 -k RTR
r -t 10.111762537 -s 2 -d 2 -p ack -e 60 -c 2 -a 0 -i 37 -k AGT
+ -t 10.111762537 -s 2 -d -1 -p tcp -e 1040 -c 2 -a 0 -i 40 -k AGT 
- -t 10.111762537 -s 2 -d -1 -p tcp -e 1040 -c 2 -a 0 -i 40 -k AGT
h -t 10.111762537 -s 2 -d -1 -p tcp -e 1040 -c 2 -a 0 -i 40 -k AGT
+ -t 10.111762537 -s 2 -d 4 -p tcp -e 1060 -c 2 -a 0 -i 40 -k RTR 
- -t 10.111762537 -s 2 -d 4 -p tcp -e 1060 -c 2 -a 0 -i 40 -k RTR
h -t 10.111762537 -s 2 -d 4 -p tcp -e 1060 -c 2 -a 0 -i 40 -k RTR
+ -t 10.111762537 -s 2 -d -1 -p tcp -e 1040 -c 2 -a 0 -i 41 -k AGT 
- -t 10.111762537 -s 2 -d -1 -p tcp -e 1040 -c 2 -a 0 -i 41 -k AGT
h -t 10.111762537 -s 2 -d -1 -p tcp -e 1040 -c 2 -a 0 -i 41 -k AGT
+ -t 10.111762537 -s 2 -d 4 -p tcp -e 1060 -c 2 -a 0 -i 41 -k RTR 
- -t 10.111762537 -s 2 -d 4 -p tcp -e 1060 -c 2 -a 0 -i 41 -k RTR
h -t 10.111762537 -s 2 -d 4 -p tcp -e 1060 -c 2 -a 0 -i 41 -k RTR
r -t 10.121788020 -s 3 -d 3 -p tcp -e 1060 -c 2 -a 0 -i 28 -k AGT
+ -t 10.121788020 -s 3 -d -1 -p ack -e 40 -c 2 -a 0 -i 42 -k AGT 
- -t 10.121788020 -s 3 -d -1 -p ack -e 40 -c 2 -a 0 -i 42 -k AGT
h -t 10.121788020 -s 3 -d -1 -p ack -e 40 -c 2 -a 0 -i 42 -k AGT
+ -t 10.121788020 -s 3 -d 1 -p ack -e 60 -c 2 -a 0 -i 42 -k RTR 
- -t 10.121788020 -s 3 -d 1 -p ack -e 60 -c 2 -a 0 -i 42 -k RTR
h -t 10.121788020 -s 3 -d 1 -p ack -e 60 -c 2 -a 0 -i 42 -k RTR
r -t 10.131833029 -s 4 -d 4 -p tcp -e 1060 -c 2 -a 0 -i 30 -k AGT
+ -t 10.131833029 -s 4 -d -1 -p ack -e 40 -c 2 -a 0 -i 43 -k AGT 
- -t 10.131833029 -s 4 -d -1 -p ack -e 40 -c 2 -a 0 -i 43 -k AGT
h -t 10.131833029 -s 4 -d -1 -p ack -e 40 -c 2 -a 0 -i 43 -k AGT
+ -t 10.131833029 -s 4 -d 2 -p ack -e 60 -c 2 -a 0 -i 43 -k RTR 
- -t 10.131833029 -s 4 -d 2 -p ack -e 60 -c 2 -a 0 -i 43 -k RTR
h -t 10.131833029 -s 4 -d 2 -p ack -e 60 -c 2 -a 0 -i 43 -k RTR
r -t 10.133838536 -s 1 -d 1 -p ack -e 60 -c 2 -a 0 -i 42 -k AGT
+ -t 10.133838536 -s 1 -d -1 -p tcp -e 1040 -c 2 -a 0 -i 44 -k AGT 
- -t 10.133838536 -s 1 -d -1 -p tcp -e 1040 -c 2 -a 0 -i 44 -k AGT
h -t 10.133838536 -s 1 -d -1 -p tcp -e 1040 -c 2 -a 0 -i 44 -k AGT
+ -t 10.133838536 -s 1 -d 3 -p tcp -e 1060 -c 2 -a 0 -i 44 -k RTR 
- -t 10.133838536 -s 1 -d 3 -p tcp -e 1060 -c 2 -a 0 -i 44 -k RTR
h -t 10.133838536 -s 1 -d 3 -p tcp -e 1060 -c 2 -a 0 -i 44 -k RTR
+ -t 10.133838536 -s 1 -d -1 -p tcp -e 1040 -c 2 -a 0 -i 45 -k AGT 
- -t 10.133838536 -s 1 -d -1 -p tcp -e 1040 -c 2 -a 0 -i 45 -k AGT
h -t 10.133838536 -s 1 -d -1 -p tcp -e 1040 -c 2 -a 0 -i 45 -k AGT
+ -t 10.133838536 -s 1 -d 3 -p tcp -e 1060 -c 2 -a 0 -i 45 -k RTR 
- -t 10.133838536 -s 1 -d 3 -p tcp -e 1060 -c 2 -a 0 -i 45 -k RTR
h -t 10.133838536 -s 1 -d 3 -p tcp -e 1060 -c 2 -a 0 -i 45 -k RTR
r -t 10.136003808 -s 2 -d 2 -p ack -e 60 -c 2 -a 0 -i 43 -k AGT
+ -t 10.136003808 -s 2 -d -1 -p tcp -e 1040 -c 2 -a 0 -i 46 -k AGT 
- -t 10.136003808 -s 2 -d -1 -p tcp -e 1040 -c 2 -a 0 -i 46 -k AGT
h -t 10.136003808 -s 2 -d -1 -p tcp -e 1040 -c 2 -a 0 -i 46 -k AGT
+ -t 10.136003808 -s 2 -d 4 -p tcp -e 1060 -c 2 -a 0 -i 46 -k RTR 
- -t 10.136003808 -s 2 -d 4 -p tcp -e 1060 -c 2 -a 0 -i 46 -k RTR
h -t 10.136003808 -s 2 -d 4 -p tcp -e 1060 -c 2 -a 0 -i 46 -k RTR
+ -t 10.136003808 -s 2 -d -1 -p tcp -e 1040 -c 2 -a 0 -i 47 -k AGT 
- -t 10.136003808 -s 2 -d -1 -p tcp -e 1040 -c 2 -a 0 -i 47 -k AGT
h -t 10.136003808 -s 2 -d -1 -p tcp -e 1040 -c 2 -a 0 -i 47 -k AGT
+ -t 10.136003808 -s 2 -d 4 -p tcp -e 1060 -c 2 -a 0 -i 47 -k RTR 
- -t 10.136003808 -s 2 -d 4 -p tcp -e 1060 -c 2 -a 0 -i 47 -k RTR
h -t 10.136003808 -s 2 -d 4 -p tcp -e 1060 -c 2 -a 0 -i 47 -k RTR
r -t 10.146029291 -s 3 -d 3 -p tcp -e 1060 -c 2 -a 0 -i 29 -k AGT
+ -t 10.146029291 -s 3 -d -1 -p ack -e 40 -c 2 -a 0 -i 48 -k AGT 
- -t 10.146029291 -s 3 -d -1 -p ack -e 40 -c 2 -a 0 -i 48 -k AGT
h -t 10.146029291 -s 3 -d -1 -p ack -e 40 -c 2 -a 0 -i 48 -k AGT
+ -t 10.146029291 -s 3 -d 1 -p ack -e 60 -c 2 -a 0 -i 48 -k RTR 
- -t 10.146029291 -s 3 -d 1 -p ack -e 60 -c 2 -a 0 -i 48 -k RTR
h -t 10.146029291 -s 3 -d 1 -p ack -e 60 -c 2 -a 0 -i 48 -k RTR
r -t 10.156114300 -s 4 -d 4 -p tcp -e 1060 -c 2 -a 0 -i 31 -k AGT
+ -t 10.156114300 -s 4 -d -1 -p ack -e 40 -c 2 -a 0 -i 49 -k AGT 
- -t 10.156114300 -s 4 -d -1 -p ack -e 40 -c 2 -a 0 -i 49 -k AGT
h -t 10.156114300 -s 4 -d -1 -p ack -e 40 -c 2 -a 0 -i 49 -k AGT
+ -t 10.156114300 -s 4 -d 2 -p ack -e 60 -c 2 -a 0 -i 49 -k RTR 
- -t 10.156114300 -s 4 -d 2 -p ack -e 60 -c 2 -a 0 -i 49 -k RTR
h -t 10.156114300 -s 4 -d 2 -p ack -e 60 -c 2 -a 0 -i 49 -k RTR
r -t 10.166179871 -s 3 -d 3 -p tcp -e 1060 -c 2 -a 0 -i 32 -k AGT
+ -t 10.166179871 -s 3 -d -1 -p ack -e 40 -c 2 -a 0 -i 50 -k AGT 
- -t 10.166179871 -s 3 -d -1 -p ack -e 40 -c 2 -a 0 -i 50 -k AGT
h -t 10.166179871 -s 3 -d -1 -p ack -e 40 -c 2 -a 0 -i 50 -k AGT
+ -t 10.166179871 -s 3 -d 1 -p ack -e 60 -c 2 -a 0 -i 50 -k RTR 
- -t 10.166179871 -s 3 -d 1 -p ack -e 60 -c 2 -a 0 -i 50 -k RTR
h -t 10.166179871 -s 3 -d 1 -p ack -e 60 -c 2 -a 0 -i 50 -k RTR
r -t 10.168205067 -s 1 -d 1 -p ack -e 60 -c 2 -a 0 -i 48 -k AGT
+ -t 10.168205067 -s 1 -d -1 -p tcp -e 1040 -c 2 -a 0 -i 51 -k AGT 
- -t 10.168205067 -s 1 -d -1 -p tcp -e 1040 -c 2 -a 0 -i 51 -k AGT
h -t 10.168205067 -s 1 -d -1 -p tcp -e 1040 -c 2 -a 0 -i 51 -k AGT
+ -t 10.168205067 -s 1 -d 3 -p tcp -e 1060 -c 2 -a 0 -i 51 -k RTR 
- -t 10.168205067 -s 1 -d 3 -p tcp -e 1060 -c 2 -a 0 -i 51 -k RTR
h -t 10.168205067 -s 1 -d 3 -p tcp -e 1060 -c 2 -a 0 -i 51 -k RTR
+ -t 10.168205067 -s 1 -d -1 -p tcp -e 1040 -c 2 -a 0 -i 52 -k AGT 
- -t 10.168205067 -s 1 -d -1 -p tcp -e 1040 -c 2 -a 0 -i 52 -k AGT
h -t 10.168205067 -s 1 -d -1 -p tcp -e 1040 -c 2 -a 0 -i 52 -k AGT
+ -t 10.168205067 -s 1 -d 3 -p tcp -e 1060 -c 2 -a 0 -i 52 -k RTR 
- -t 10.168205067 -s 1 -d 3 -p tcp -e 1060 -c 2 -a 0 -i 52 -k RTR
h -t 10.168205067 -s 1 -d 3 -p tcp -e 1060 -c 2 -a 0 -i 52 -k RTR
r -t 10.178230250 -s 4 -d 4 -p tcp -e 1060 -c 2 -a 0 -i 34 -k AGT
+ -t 10.178230250 -s 4 -d -1 -p ack -e 40 -c 2 -a 0 -i 53 -k AGT 
- -t 10.178230250 -s 4 -d -1 -p ack -e 40 -c 2 -a 0 -i 53 -k AGT
h -t 10.178230250 -s 4 -d -1 -p ack -e 40 -c 2 -a 0 -i 53 -k AGT
+ -t 10.178230250 -s 4 -d 2 -p ack -e 60 -c 2 -a 0 -i 53 -k RTR 
- -t 10.178230250 -s 4 -d 2 -p ack -e 60 -c 2 -a 0 -i 53 -k RTR
h -t 10.178230250 -s 4 -d 2 -p ack -e 60 -c 2 -a 0 -i 53 -k RTR
r -t 10.188335444 -s 4 -d 4 -p tcp -e 1060 -c 2 -a 0 -i 35 -k AGT
+ -t 10.188335444 -s 4 -d -1 -p ack -e 40 -c 2 -a 0 -i 54 -k AGT 
- -t 10.188335444 -s 4 -d -1 -p ack -e 40 -c 2 -a 0 -i 54 -k AGT
h -t 10.188335444 -s 4 -d -1 -p ack -e 40 -c 2 -a 0 -i 54 -k AGT
+ -t 10.188335444 -s 4 -d 2 -p ack -e 60 -c 2 -a 0 -i 54 -k RTR 
- -t 10.188335444 -s 4 -d 2 -p ack -e 60 -c 2 -a 0 -i 54 -k RTR
h -t 10.188335444 -s 4 -d 2 -p ack -e 60 -c 2 -a 0 -i 54 -k RTR
r -t 10.200133213 -s 4 -d 4 -p tcp -e 1060 -c 2 -a 0 -i 40 -k AGT
+ -t 10.200133213 -s 4 -d -1 -p ack -e 40 -c 2 -a 0 -i 55 -k AGT 
- -t 10.200133213 -s 4 -d -1 -p ack -e 40 -c 2 -a 0 -i 55 -k AGT
h -t 10.200133213 -s 4 -d -1 -p ack -e 40 -c 2 -a 0 -i 55 -k AGT
+ -t 10.200133213 -s 4 -d 2 -p ack -e 60 -c 2 -a 0 -i 55 -k RTR 
- -t 10.200133213 -s 4 -d 2 -p ack -e 60 -c 2 -a 0 -i 55 -k RTR
h -t 10.200133213 -s 4 -d 2 -p ack -e 60 -c 2 -a 0 -i 55 -k RTR
r -t 10.210238785 -s 3 -d 3 -p tcp -e 1060 -c 2 -a 0 -i 33 -k AGT
+ -t 10.210238785 -s 3 -d -1 -p ack -e 40 -c 2 -a 0 -i 56 -k AGT 
- -t 10.210238785 -s 3 -d -1 -p ack -e 40 -c 2 -a 0 -i 56 -k AGT
h -t 10.210238785 -s 3 -d -1 -p ack -e 40 -c 2 -a 0 -i 56 -k AGT
+ -t 10.210238785 -s 3 -d 1 -p ack -e 60 -c 2 -a 0 -i 56 -k RTR 
- -t 10.210238785 -s 3 -d 1 -p ack -e 60 -c 2 -a 0 -i 56 -k RTR
h -t 10.210238785 -s 3 -d 1 -p ack -e 60 -c 2 -a 0 -i 56 -k RTR
r -t 10.220423794 -s 4 -d 4 -p tcp -e 1060 -c 2 -a 0 -i 41 -k AGT
+ -t 10.220423794 -s 4 -d -1 -p ack -e 40 -c 2 -a 0 -i 57 -k AGT 
- -t 10.220423794 -s 4 -d -1 -p ack -e 40 -c 2 -a 0 -i 57 -k AGT
h -t 10.220423794 -s 4 -d -1 -p ack -e 40 -c 2 -a 0 -i 57 -k AGT
+ -t 10.220423794 -s 4 -d 2 -p ack -e 60 -c 2 -a 0 -i 57 -k RTR 
- -t 10.220423794 -s 4 -d 2 -p ack -e 60 -c 2 -a 0 -i 57 -k RTR
h -t 10.220423794 -s 4 -d 2 -p ack -e 60 -c 2 -a 0 -i 57 -k RTR
r -t 10.230629365 -s 3 -d 3 -p tcp -e 1060 -c 2 -a 0 -i 38 -k AGT
+ -t 10.230629365 -s 3 -d -1 -p ack -e 40 -c 2 -a 0 -i 58 -k AGT 
- -t 10.230629365 -s 3 -d -1 -p ack -e 40 -c 2 -a 0 -i 58 -k AGT
h -t 10.230629365 -s 3 -d -1 -p ack -e 40 -c 2 -a 0 -i 58 -k AGT
+ -t 10.230629365 -s 3 -d 1 -p ack -e 60 -c 2 -a 0 -i 58 -k RTR 
- -t 10.230629365 -s 3 -d 1 -p ack -e 60 -c 2 -a 0 -i 58 -k RTR