V -t * -v 1.0a5 -a 0
W -t * -x 555.453125 -y 590.687500
A -t * -n 1 -p 0 -o 0x7fffffff -c 30 -a 1
A -t * -h 1 -m 1073741823 -s 0
n -t * -a 0 -s 0 -S UP -v circle -c black -i black -x 555.453125 -y 588.281250 -Z 0.0
n -t * -a 1 -s 1 -S UP -v circle -c black -i black -x 487.046844 -y 590.687500 -Z 0.0
l -t * -s 0 -d 1 -S UP -r 1000000 -D 0.02 -c black -o 178.0deg
q -t * -s 1 -d 0 -a 0.5
q -t * -s 0 -d 1 -a 0.5
