V -t * -v 1.0a5 -a 0
A -t * -n 1 -p 0 -o 0x7fffffff -c 30 -a 1
A -t * -h 1 -m 1073741823 -s 0
c -t * -i 1 -n Blue
c -t * -i 2 -n Green
n -t * -a 4 -s 4 -S UP -v circle -c black -i black
n -t * -a 0 -s 0 -S UP -v circle -c black -i black
n -t * -a 1 -s 1 -S UP -v circle -c black -i black
n -t * -a 2 -s 2 -S UP -v circle -c black -i black
n -t * -a 3 -s 3 -S UP -v circle -c black -i black
l -t * -s 0 -d 2 -S UP -r 2500000 -D 0.01 -c black -o right-down
l -t * -s 1 -d 2 -S UP -r 2000000 -D 0.01 -c black -o right-up
l -t * -s 2 -d 3 -S UP -r 1500000 -D 0.02 -c black -o right-up
l -t * -s 2 -d 4 -S UP -r 1000000 -D 0.02 -c black -o right-down
+ -t 0.1 -s 1 -d 2 -p cbr -e 210 -c 2 -i 0 -a 2 -x {1.0 4.0 0 ------- null}
- -t 0.1 -s 1 -d 2 -p cbr -e 210 -c 2 -i 0 -a 2 -x {1.0 4.0 0 ------- null}
h -t 0.1 -s 1 -d 2 -p cbr -e 210 -c 2 -i 0 -a 2 -x {1.0 4.0 -1 ------- null}
+ -t 0.10168 -s 1 -d 2 -p cbr -e 210 -c 2 -i 1 -a 2 -x {1.0 4.0 1 ------- null}
- -t 0.10168 -s 1 -d 2 -p cbr -e 210 -c 2 -i 1 -a 2 -x {1.0 4.0 1 ------- null}
h -t 0.10168 -s 1 -d 2 -p cbr -e 210 -c 2 -i 1 -a 2 -x {1.0 4.0 -1 ------- null}
+ -t 0.10336 -s 1 -d 2 -p cbr -e 210 -c 2 -i 2 -a 2 -x {1.0 4.0 2 ------- null}
- -t 0.10336 -s 1 -d 2 -p cbr -e 210 -c 2 -i 2 -a 2 -x {1.0 4.0 2 ------- null}
h -t 0.10336 -s 1 -d 2 -p cbr -e 210 -c 2 -i 2 -a 2 -x {1.0 4.0 -1 ------- null}
+ -t 0.10504 -s 1 -d 2 -p cbr -e 210 -c 2 -i 3 -a 2 -x {1.0 4.0 3 ------- null}
- -t 0.10504 -s 1 -d 2 -p cbr -e 210 -c 2 -i 3 -a 2 -x {1.0 4.0 3 ------- null}
h -t 0.10504 -s 1 -d 2 -p cbr -e 210 -c 2 -i 3 -a 2 -x {1.0 4.0 -1 ------- null}
+ -t 0.10672 -s 1 -d 2 -p cbr -e 210 -c 2 -i 4 -a 2 -x {1.0 4.0 4 ------- null}
- -t 0.10672 -s 1 -d 2 -p cbr -e 210 -c 2 -i 4 -a 2 -x {1.0 4.0 4 ------- null}
h -t 0.10672 -s 1 -d 2 -p cbr -e 210 -c 2 -i 4 -a 2 -x {1.0 4.0 -1 ------- null}
+ -t 0.1084 -s 1 -d 2 -p cbr -e 210 -c 2 -i 5 -a 2 -x {1.0 4.0 5 ------- null}
- -t 0.1084 -s 1 -d 2 -p cbr -e 210 -c 2 -i 5 -a 2 -x {1.0 4.0 5 ------- null}
h -t 0.1084 -s 1 -d 2 -p cbr -e 210 -c 2 -i 5 -a 2 -x {1.0 4.0 -1 ------- null}
+ -t 0.11008 -s 1 -d 2 -p cbr -e 210 -c 2 -i 6 -a 2 -x {1.0 4.0 6 ------- null}
- -t 0.11008 -s 1 -d 2 -p cbr -e 210 -c 2 -i 6 -a 2 -x {1.0 4.0 6 ------- null}
h -t 0.11008 -s 1 -d 2 -p cbr -e 210 -c 2 -i 6 -a 2 -x {1.0 4.0 -1 ------- null}
r -t 0.11084 -s 1 -d 2 -p cbr -e 210 -c 2 -i 0 -a 2 -x {1.0 4.0 0 ------- null}
+ -t 0.11084 -s 2 -d 4 -p cbr -e 210 -c 2 -i 0 -a 2 -x {1.0 4.0 0 ------- null}
- -t 0.11084 -s 2 -d 4 -p cbr -e 210 -c 2 -i 0 -a 2 -x {1.0 4.0 0 ------- null}
h -t 0.11084 -s 2 -d 4 -p cbr -e 210 -c 2 -i 0 -a 2 -x {1.0 4.0 -1 ------- null}
+ -t 0.11176 -s 1 -d 2 -p cbr -e 210 -c 2 -i 7 -a 2 -x {1.0 4.0 7 ------- null}
- -t 0.11176 -s 1 -d 2 -p cbr -e 210 -c 2 -i 7 -a 2 -x {1.0 4.0 7 ------- null}
h -t 0.11176 -s 1 -d 2 -p cbr -e 210 -c 2 -i 7 -a 2 -x {1.0 4.0 -1 ------- null}
r -t 0.11252 -s 1 -d 2 -p cbr -e 210 -c 2 -i 1 -a 2 -x {1.0 4.0 1 ------- null}
+ -t 0.11252 -s 2 -d 4 -p cbr -e 210 -c 2 -i 1 -a 2 -x {1.0 4.0 1 ------- null}
- -t 0.11252 -s 2 -d 4 -p cbr -e 210 -c 2 -i 1 -a 2 -x {1.0 4.0 1 ------- null}
h -t 0.11252 -s 2 -d 4 -p cbr -e 210 -c 2 -i 1 -a 2 -x {1.0 4.0 -1 ------- null}
+ -t 0.11344 -s 1 -d 2 -p cbr -e 210 -c 2 -i 8 -a 2 -x {1.0 4.0 8 ------- null}
- -t 0.11344 -s 1 -d 2 -p cbr -e 210 -c 2 -i 8 -a 2 -x {1.0 4.0 8 ------- null}
h -t 0.11344 -s 1 -d 2 -p cbr -e 210 -c 2 -i 8 -a 2 -x {1.0 4.0 -1 ------- null}
r -t 0.1142 -s 1 -d 2 -p cbr -e 210 -c 2 -i 2 -a 2 -x {1.0 4.0 2 ------- null}
+ -t 0.1142 -s 2 -d 4 -p cbr -e 210 -c 2 -i 2 -a 2 -x {1.0 4.0 2 ------- null}
- -t 0.1142 -s 2 -d 4 -p cbr -e 210 -c 2 -i 2 -a 2 -x {1.0 4.0 2 ------- null}
h -t 0.1142 -s 2 -d 4 -p cbr -e 210 -c 2 -i 2 -a 2 -x {1.0 4.0 -1 ------- null}
+ -t 0.11512 -s 1 -d 2 -p cbr -e 210 -c 2 -i 9 -a 2 -x {1.0 4.0 9 ------- null}
- -t 0.11512 -s 1 -d 2 -p cbr -e 210 -c 2 -i 9 -a 2 -x {1.0 4.0 9 ------- null}
h -t 0.11512 -s 1 -d 2 -p cbr -e 210 -c 2 -i 9 -a 2 -x {1.0 4.0 -1 ------- null}
r -t 0.11588 -s 1 -d 2 -p cbr -e 210 -c 2 -i 3 -a 2 -x {1.0 4.0 3 ------- null}
+ -t 0.11588 -s 2 -d 4 -p cbr -e 210 -c 2 -i 3 -a 2 -x {1.0 4.0 3 ------- null}
- -t 0.11588 -s 2 -d 4 -p cbr -e 210 -c 2 -i 3 -a 2 -x {1.0 4.0 3 ------- null}
h -t 0.11588 -s 2 -d 4 -p cbr -e 210 -c 2 -i 3 -a 2 -x {1.0 4.0 -1 ------- null}
+ -t 0.1168 -s 1 -d 2 -p cbr -e 210 -c 2 -i 10 -a 2 -x {1.0 4.0 10 ------- null}
- -t 0.1168 -s 1 -d 2 -p cbr -e 210 -c 2 -i 10 -a 2 -x {1.0 4.0 10 ------- null}
h -t 0.1168 -s 1 -d 2 -p cbr -e 210 -c 2 -i 10 -a 2 -x {1.0 4.0 -1 ------- null}
r -t 0.11756 -s 1 -d 2 -p cbr -e 210 -c 2 -i 4 -a 2 -x {1.0 4.0 4 ------- null}
+ -t 0.11756 -s 2 -d 4 -p cbr -e 210 -c 2 -i 4 -a 2 -x {1.0 4.0 4 ------- null}
- -t 0.11756 -s 2 -d 4 -p cbr -e 210 -c 2 -i 4 -a 2 -x {1.0 4.0 4 ------- null}
h -t 0.11756 -s 2 -d 4 -p cbr -e 210 -c 2 -i 4 -a 2 -x {1.0 4.0 -1 ------- null}
+ -t 0.11848 -s 1 -d 2 -p cbr -e 210 -c 2 -i 11 -a 2 -x {1.0 4.0 11 ------- null}
- -t 0.11848 -s 1 -d 2 -p cbr -e 210 -c 2 -i 11 -a 2 -x {1.0 4.0 11 ------- null}
h -t 0.11848 -s 1 -d 2 -p cbr -e 210 -c 2 -i 11 -a 2 -x {1.0 4.0 -1 ------- null}
r -t 0.11924 -s 1 -d 2 -p cbr -e 210 -c 2 -i 5 -a 2 -x {1.0 4.0 5 ------- null}
+ -t 0.11924 -s 2 -d 4 -p cbr -e 210 -c 2 -i 5 -a 2 -x {1.0 4.0 5 ------- null}
- -t 0.11924 -s 2 -d 4 -p cbr -e 210 -c 2 -i 5 -a 2 -x {1.0 4.0 5 ------- null}
h -t 0.11924 -s 2 -d 4 -p cbr -e 210 -c 2 -i 5 -a 2 -x {1.0 4.0 -1 ------- null}
+ -t 0.12016 -s 1 -d 2 -p cbr -e 210 -c 2 -i 12 -a 2 -x {1.0 4.0 12 ------- null}
- -t 0.12016 -s 1 -d 2 -p cbr -e 210 -c 2 -i 12 -a 2 -x {1.0 4.0 12 ------- null}
h -t 0.12016 -s 1 -d 2 -p cbr -e 210 -c 2 -i 12 -a 2 -x {1.0 4.0 -1 ------- null}
r -t 0.12092 -s 1 -d 2 -p cbr -e 210 -c 2 -i 6 -a 2 -x {1.0 4.0 6 ------- null}
+ -t 0.12092 -s 2 -d 4 -p cbr -e 210 -c 2 -i 6 -a 2 -x {1.0 4.0 6 ------- null}
- -t 0.12092 -s 2 -d 4 -p cbr -e 210 -c 2 -i 6 -a 2 -x {1.0 4.0 6 ------- null}
h -t 0.12092 -s 2 -d 4 -p cbr -e 210 -c 2 -i 6 -a 2 -x {1.0 4.0 -1 ------- null}
+ -t 0.12184 -s 1 -d 2 -p cbr -e 210 -c 2 -i 13 -a 2 -x {1.0 4.0 13 ------- null}
- -t 0.12184 -s 1 -d 2 -p cbr -e 210 -c 2 -i 13 -a 2 -x {1.0 4.0 13 ------- null}
h -t 0.12184 -s 1 -d 2 -p cbr -e 210 -c 2 -i 13 -a 2 -x {1.0 4.0 -1 ------- null}
r -t 0.1226 -s 1 -d 2 -p cbr -e 210 -c 2 -i 7 -a 2 -x {1.0 4.0 7 ------- null}
+ -t 0.1226 -s 2 -d 4 -p cbr -e 210 -c 2 -i 7 -a 2 -x {1.0 4.0 7 ------- null}
- -t 0.1226 -s 2 -d 4 -p cbr -e 210 -c 2 -i 7 -a 2 -x {1.0 4.0 7 ------- null}
h -t 0.1226 -s 2 -d 4 -p cbr -e 210 -c 2 -i 7 -a 2 -x {1.0 4.0 -1 ------- null}
+ -t 0.12352 -s 1 -d 2 -p cbr -e 210 -c 2 -i 14 -a 2 -x {1.0 4.0 14 ------- null}
- -t 0.12352 -s 1 -d 2 -p cbr -e 210 -c 2 -i 14 -a 2 -x {1.0 4.0 14 ------- null}
h -t 0.12352 -s 1 -d 2 -p cbr -e 210 -c 2 -i 14 -a 2 -x {1.0 4.0 -1 ------- null}
r -t 0.12428 -s 1 -d 2 -p cbr -e 210 -c 2 -i 8 -a 2 -x {1.0 4.0 8 ------- null}
+ -t 0.12428 -s 2 -d 4 -p cbr -e 210 -c 2 -i 8 -a 2 -x {1.0 4.0 8 ------- null}
- -t 0.12428 -s 2 -d 4 -p cbr -e 210 -c 2 -i 8 -a 2 -x {1.0 4.0 8 ------- null}
h -t 0.12428 -s 2 -d 4 -p cbr -e 210 -c 2 -i 8 -a 2 -x {1.0 4.0 -1 ------- null}
+ -t 0.1252 -s 1 -d 2 -p cbr -e 210 -c 2 -i 15 -a 2 -x {1.0 4.0 15 ------- null}
- -t 0.1252 -s 1 -d 2 -p cbr -e 210 -c 2 -i 15 -a 2 -x {1.0 4.0 15 ------- null}
h -t 0.1252 -s 1 -d 2 -p cbr -e 210 -c 2 -i 15 -a 2 -x {1.0 4.0 -1 ------- null}
r -t 0.12596 -s 1 -d 2 -p cbr -e 210 -c 2 -i 9 -a 2 -x {1.0 4.0 9 ------- null}
+ -t 0.12596 -s 2 -d 4 -p cbr -e 210 -c 2 -i 9 -a 2 -x {1.0 4.0 9 ------- null}
- -t 0.12596 -s 2 -d 4 -p cbr -e 210 -c 2 -i 9 -a 2 -x {1.0 4.0 9 ------- null}
h -t 0.12596 -s 2 -d 4 -p cbr -e 210 -c 2 -i 9 -a 2 -x {1.0 4.0 -1 ------- null}
+ -t 0.12688 -s 1 -d 2 -p cbr -e 210 -c 2 -i 16 -a 2 -x {1.0 4.0 16 ------- null}
- -t 0.12688 -s 1 -d 2 -p cbr -e 210 -c 2 -i 16 -a 2 -x {1.0 4.0 16 ------- null}
h -t 0.12688 -s 1 -d 2 -p cbr -e 210 -c 2 -i 16 -a 2 -x {1.0 4.0 -1 ------- null}
r -t 0.12764 -s 1 -d 2 -p cbr -e 210 -c 2 -i 10 -a 2 -x {1.0 4.0 10 ------- null}
+ -t 0.12764 -s 2 -d 4 -p cbr -e 210 -c 2 -i 10 -a 2 -x {1.0 4.0 10 ------- null}
- -t 0.12764 -s 2 -d 4 -p cbr -e 210 -c 2 -i 10 -a 2 -x {1.0 4.0 10 ------- null}
h -t 0.12764 -s 2 -d 4 -p cbr -e 210 -c 2 -i 10 -a 2 -x {1.0 4.0 -1 ------- null}
+ -t 0.12856 -s 1 -d 2 -p cbr -e 210 -c 2 -i 17 -a 2 -x {1.0 4.0 17 ------- null}
- -t 0.12856 -s 1 -d 2 -p cbr -e 210 -c 2 -i 17 -a 2 -x {1.0 4.0 17 ------- null}
h -t 0.12856 -s 1 -d 2 -p cbr -e 210 -c 2 -i 17 -a 2 -x {1.0 4.0 -1 ------- null}
r -t 0.12932 -s 1 -d 2 -p cbr -e 210 -c 2 -i 11 -a 2 -x {1.0 4.0 11 ------- null}
+ -t 0.12932 -s 2 -d 4 -p cbr -e 210 -c 2 -i 11 -a 2 -x {1.0 4.0 11 ------- null}
- -t 0.12932 -s 2 -d 4 -p cbr -e 210 -c 2 -i 11 -a 2 -x {1.0 4.0 11 ------- null}
h -t 0.12932 -s 2 -d 4 -p cbr -e 210 -c 2 -i 11 -a 2 -x {1.0 4.0 -1 ------- null}
+ -t 0.13024 -s 1 -d 2 -p cbr -e 210 -c 2 -i 18 -a 2 -x {1.0 4.0 18 ------- null}
- -t 0.13024 -s 1 -d 2 -p cbr -e 210 -c 2 -i 18 -a 2 -x {1.0 4.0 18 ------- null}
h -t 0.13024 -s 1 -d 2 -p cbr -e 210 -c 2 -i 18 -a 2 -x {1.0 4.0 -1 ------- null}
r -t 0.131 -s 1 -d 2 -p cbr -e 210 -c 2 -i 12 -a 2 -x {1.0 4.0 12 ------- null}
+ -t 0.131 -s 2 -d 4 -p cbr -e 210 -c 2 -i 12 -a 2 -x {1.0 4.0 12 ------- null}
- -t 0.131 -s 2 -d 4 -p cbr -e 210 -c 2 -i 12 -a 2 -x {1.0 4.0 12 ------- null}
h -t 0.131 -s 2 -d 4 -p cbr -e 210 -c 2 -i 12 -a 2 -x {1.0 4.0 -1 ------- null}
+ -t 0.13192 -s 1 -d 2 -p cbr -e 210 -c 2 -i 19 -a 2 -x {1.0 4.0 19 ------- null}
- -t 0.13192 -s 1 -d 2 -p cbr -e 210 -c 2 -i 19 -a 2 -x {1.0 4.0 19 ------- null}
h -t 0.13192 -s 1 -d 2 -p cbr -e 210 -c 2 -i 19 -a 2 -x {1.0 4.0 -1 ------- null}
r -t 0.13252 -s 2 -d 4 -p cbr -e 210 -c 2 -i 0 -a 2 -x {1.0 4.0 0 ------- null}
r -t 0.13268 -s 1 -d 2 -p cbr -e 210 -c 2 -i 13 -a 2 -x {1.0 4.0 13 ------- null}
+ -t 0.13268 -s 2 -d 4 -p cbr -e 210 -c 2 -i 13 -a 2 -x {1.0 4.0 13 ------- null}
- -t 0.13268 -s 2 -d 4 -p cbr -e 210 -c 2 -i 13 -a 2 -x {1.0 4.0 13 ------- null}
h -t 0.13268 -s 2 -d 4 -p cbr -e 210 -c 2 -i 13 -a 2 -x {1.0 4.0 -1 ------- null}
+ -t 0.1336 -s 1 -d 2 -p cbr -e 210 -c 2 -i 20 -a 2 -x {1.0 4.0 20 ------- null}
- -t 0.1336 -s 1 -d 2 -p cbr -e 210 -c 2 -i 20 -a 2 -x {1.0 4.0 20 ------- null}
h -t 0.1336 -s 1 -d 2 -p cbr -e 210 -c 2 -i 20 -a 2 -x {1.0 4.0 -1 ------- null}
r -t 0.1342 -s 2 -d 4 -p cbr -e 210 -c 2 -i 1 -a 2 -x {1.0 4.0 1 ------- null}
r -t 0.13436 -s 1 -d 2 -p cbr -e 210 -c 2 -i 14 -a 2 -x {1.0 4.0 14 ------- null}
+ -t 0.13436 -s 2 -d 4 -p cbr -e 210 -c 2 -i 14 -a 2 -x {1.0 4.0 14 ------- null}
- -t 0.13436 -s 2 -d 4 -p cbr -e 210 -c 2 -i 14 -a 2 -x {1.0 4.0 14 ------- null}
h -t 0.13436 -s 2 -d 4 -p cbr -e 210 -c 2 -i 14 -a 2 -x {1.0 4.0 -1 ------- null}
+ -t 0.13528 -s 1 -d 2 -p cbr -e 210 -c 2 -i 21 -a 2 -x {1.0 4.0 21 ------- null}
- -t 0.13528 -s 1 -d 2 -p cbr -e 210 -c 2 -i 21 -a 2 -x {1.0 4.0 21 ------- null}
h -t 0.13528 -s 1 -d 2 -p cbr -e 210 -c 2 -i 21 -a 2 -x {1.0 4.0 -1 ------- null}
r -t 0.13588 -s 2 -d 4 -p cbr -e 210 -c 2 -i 2 -a 2 -x {1.0 4.0 2 ------- null}
r -t 0.13604 -s 1 -d 2 -p cbr -e 210 -c 2 -i 15 -a 2 -x {1.0 4.0 15 ------- null}
+ -t 0.13604 -s 2 -d 4 -p cbr -e 210 -c 2 -i 15 -a 2 -x {1.0 4.0 15 ------- null}
- -t 0.13604 -s 2 -d 4 -p cbr -e 210 -c 2 -i 15 -a 2 -x {1.0 4.0 15 ------- null}
h -t 0.13604 -s 2 -d 4 -p cbr -e 210 -c 2 -i 15 -a 2 -x {1.0 4.0 -1 ------- null}
+ -t 0.13696 -s 1 -d 2 -p cbr -e 210 -c 2 -i 22 -a 2 -x {1.0 4.0 22 ------- null}
- -t 0.13696 -s 1 -d 2 -p cbr -e 210 -c 2 -i 22 -a 2 -x {1.0 4.0 22 ------- null}
h -t 0.13696 -s 1 -d 2 -p cbr -e 210 -c 2 -i 22 -a 2 -x {1.0 4.0 -1 ------- null}
r -t 0.13756 -s 2 -d 4 -p cbr -e 210 -c 2 -i 3 -a 2 -x {1.0 4.0 3 ------- null}
r -t 0.13772 -s 1 -d 2 -p cbr -e 210 -c 2 -i 16 -a 2 -x {1.0 4.0 16 ------- null}
+ -t 0.13772 -s 2 -d 4 -p cbr -e 210 -c 2 -i 16 -a 2 -x {1.0 4.0 16 ------- null}
- -t 0.13772 -s 2 -d 4 -p cbr -e 210 -c 2 -i 16 -a 2 -x {1.0 4.0 16 ------- null}
h -t 0.13772 -s 2 -d 4 -p cbr -e 210 -c 2 -i 16 -a 2 -x {1.0 4.0 -1 ------- null}
+ -t 0.13864 -s 1 -d 2 -p cbr -e 210 -c 2 -i 23 -a 2 -x {1.0 4.0 23 ------- null}
- -t 0.13864 -s 1 -d 2 -p cbr -e 210 -c 2 -i 23 -a 2 -x {1.0 4.0 23 ------- null}
h -t 0.13864 -s 1 -d 2 -p cbr -e 210 -c 2 -i 23 -a 2 -x {1.0 4.0 -1 ------- null}
r -t 0.13924 -s 2 -d 4 -p cbr -e 210 -c 2 -i 4 -a 2 -x {1.0 4.0 4 ------- null}
r -t 0.1394 -s 1 -d 2 -p cbr -e 210 -c 2 -i 17 -a 2 -x {1.0 4.0 17 ------- null}
+ -t 0.1394 -s 2 -d 4 -p cbr -e 210 -c 2 -i 17 -a 2 -x {1.0 4.0 17 ------- null}
- -t 0.1394 -s 2 -d 4 -p cbr -e 210 -c 2 -i 17 -a 2 -x {1.0 4.0 17 ------- null}
h -t 0.1394 -s 2 -d 4 -p cbr -e 210 -c 2 -i 17 -a 2 -x {1.0 4.0 -1 ------- null}
+ -t 0.14032 -s 1 -d 2 -p cbr -e 210 -c 2 -i 24 -a 2 -x {1.0 4.0 24 ------- null}
- -t 0.14032 -s 1 -d 2 -p cbr -e 210 -c 2 -i 24 -a 2 -x {1.0 4.0 24 ------- null}
h -t 0.14032 -s 1 -d 2 -p cbr -e 210 -c 2 -i 24 -a 2 -x {1.0 4.0 -1 ------- null}
r -t 0.14092 -s 2 -d 4 -p cbr -e 210 -c 2 -i 5 -a 2 -x {1.0 4.0 5 ------- null}
r -t 0.14108 -s 1 -d 2 -p cbr -e 210 -c 2 -i 18 -a 2 -x {1.0 4.0 18 ------- null}
+ -t 0.14108 -s 2 -d 4 -p cbr -e 210 -c 2 -i 18 -a 2 -x {1.0 4.0 18 ------- null}
- -t 0.14108 -s 2 -d 4 -p cbr -e 210 -c 2 -i 18 -a 2 -x {1.0 4.0 18 ------- null}
h -t 0.14108 -s 2 -d 4 -p cbr -e 210 -c 2 -i 18 -a 2 -x {1.0 4.0 -1 ------- null}
+ -t 0.142 -s 1 -d 2 -p cbr -e 210 -c 2 -i 25 -a 2 -x {1.0 4.0 25 ------- null}
- -t 0.142 -s 1 -d 2 -p cbr -e 210 -c 2 -i 25 -a 2 -x {1.0 4.0 25 ------- null}
h -t 0.142 -s 1 -d 2 -p cbr -e 210 -c 2 -i 25 -a 2 -x {1.0 4.0 -1 ------- null}
r -t 0.1426 -s 2 -d 4 -p cbr -e 210 -c 2 -i 6 -a 2 -x {1.0 4.0 6 ------- null}
r -t 0.14276 -s 1 -d 2 -p cbr -e 210 -c 2 -i 19 -a 2 -x {1.0 4.0 19 ------- null}
+ -t 0.14276 -s 2 -d 4 -p cbr -e 210 -c 2 -i 19 -a 2 -x {1.0 4.0 19 ------- null}
- -t 0.14276 -s 2 -d 4 -p cbr -e 210 -c 2 -i 19 -a 2 -x {1.0 4.0 19 ------- null}
h -t 0.14276 -s 2 -d 4 -p cbr -e 210 -c 2 -i 19 -a 2 -x {1.0 4.0 -1 ------- null}
+ -t 0.14368 -s 1 -d 2 -p cbr -e 210 -c 2 -i 26 -a 2 -x {1.0 4.0 26 ------- null}
- -t 0.14368 -s 1 -d 2 -p cbr -e 210 -c 2 -i 26 -a 2 -x {1.0 4.0 26 ------- null}
h -t 0.14368 -s 1 -d 2 -p cbr -e 210 -c 2 -i 26 -a 2 -x {1.0 4.0 -1 ------- null}
r -t 0.14428 -s 2 -d 4 -p cbr -e 210 -c 2 -i 7 -a 2 -x {1.0 4.0 7 ------- null}
r -t 0.14444 -s 1 -d 2 -p cbr -e 210 -c 2 -i 20 -a 2 -x {1.0 4.0 20 ------- null}
+ -t 0.14444 -s 2 -d 4 -p cbr -e 210 -c 2 -i 20 -a 2 -x {1.0 4.0 20 ------- null}
- -t 0.14444 -s 2 -d 4 -p cbr -e 210 -c 2 -i 20 -a 2 -x {1.0 4.0 20 ------- null}
h -t 0.14444 -s 2 -d 4 -p cbr -e 210 -c 2 -i 20 -a 2 -x {1.0 4.0 -1 ------- null}
+ -t 0.14536 -s 1 -d 2 -p cbr -e 210 -c 2 -i 27 -a 2 -x {1.0 4.0 27 ------- null}
- -t 0.14536 -s 1 -d 2 -p cbr -e 210 -c 2 -i 27 -a 2 -x {1.0 4.0 27 ------- null}
h -t 0.14536 -s 1 -d 2 -p cbr -e 210 -c 2 -i 27 -a 2 -x {1.0 4.0 -1 ------- null}
r -t 0.14596 -s 2 -d 4 -p cbr -e 210 -c 2 -i 8 -a 2 -x {1.0 4.0 8 ------- null}
r -t 0.14612 -s 1 -d 2 -p cbr -e 210 -c 2 -i 21 -a 2 -x {1.0 4.0 21 ------- null}
+ -t 0.14612 -s 2 -d 4 -p cbr -e 210 -c 2 -i 21 -a 2 -x {1.0 4.0 21 ------- null}
- -t 0.14612 -s 2 -d 4 -p cbr -e 210 -c 2 -i 21 -a 2 -x {1.0 4.0 21 ------- null}
h -t 0.14612 -s 2 -d 4 -p cbr -e 210 -c 2 -i 21 -a 2 -x {1.0 4.0 -1 ------- null}
+ -t 0.14704 -s 1 -d 2 -p cbr -e 210 -c 2 -i 28 -a 2 -x {1.0 4.0 28 ------- null}
- -t 0.14704 -s 1 -d 2 -p cbr -e 210 -c 2 -i 28 -a 2 -x {1.0 4.0 28 ------- null}
h -t 0.14704 -s 1 -d 2 -p cbr -e 210 -c 2 -i 28 -a 2 -x {1.0 4.0 -1 ------- null}
r -t 0.14764 -s 2 -d 4 -p cbr -e 210 -c 2 -i 9 -a 2 -x {1.0 4.0 9 ------- null}
r -t 0.1478 -s 1 -d 2 -p cbr -e 210 -c 2 -i 22 -a 2 -x {1.0 4.0 22 ------- null}
+ -t 0.1478 -s 2 -d 4 -p cbr -e 210 -c 2 -i 22 -a 2 -x {1.0 4.0 22 ------- null}
- -t 0.1478 -s 2 -d 4 -p cbr -e 210 -c 2 -i 22 -a 2 -x {1.0 4.0 22 ------- null}
h -t 0.1478 -s 2 -d 4 -p cbr -e 210 -c 2 -i 22 -a 2 -x {1.0 4.0 -1 ------- null}
+ -t 0.14872 -s 1 -d 2 -p cbr -e 210 -c 2 -i 29 -a 2 -x {1.0 4.0 29 ------- null}
- -t 0.14872 -s 1 -d 2 -p cbr -e 210 -c 2 -i 29 -a 2 -x {1.0 4.0 29 ------- null}
h -t 0.14872 -s 1 -d 2 -p cbr -e 210 -c 2 -i 29 -a 2 -x {1.0 4.0 -1 ------- null}
r -t 0.14932 -s 2 -d 4 -p cbr -e 210 -c 2 -i 10 -a 2 -x {1.0 4.0 10 ------- null}
r -t 0.14948 -s 1 -d 2 -p cbr -e 210 -c 2 -i 23 -a 2 -x {1.0 4.0 23 ------- null}
+ -t 0.14948 -s 2 -d 4 -p cbr -e 210 -c 2 -i 23 -a 2 -x {1.0 4.0 23 ------- null}
- -t 0.14948 -s 2 -d 4 -p cbr -e 210 -c 2 -i 23 -a 2 -x {1.0 4.0 23 ------- null}
h -t 0.14948 -s 2 -d 4 -p cbr -e 210 -c 2 -i 23 -a 2 -x {1.0 4.0 -1 ------- null}
+ -t 0.1504 -s 1 -d 2 -p cbr -e 210 -c 2 -i 30 -a 2 -x {1.0 4.0 30 ------- null}
- -t 0.1504 -s 1 -d 2 -p cbr -e 210 -c 2 -i 30 -a 2 -x {1.0 4.0 30 ------- null}
h -t 0.1504 -s 1 -d 2 -p cbr -e 210 -c 2 -i 30 -a 2 -x {1.0 4.0 -1 ------- null}
r -t 0.151 -s 2 -d 4 -p cbr -e 210 -c 2 -i 11 -a 2 -x {1.0 4.0 11 ------- null}
r -t 0.15116 -s 1 -d 2 -p cbr -e 210 -c 2 -i 24 -a 2 -x {1.0 4.0 24 ------- null}
+ -t 0.15116 -s 2 -d 4 -p cbr -e 210 -c 2 -i 24 -a 2 -x {1.0 4.0 24 ------- null}
- -t 0.15116 -s 2 -d 4 -p cbr -e 210 -c 2 -i 24 -a 2 -x {1.0 4.0 24 ------- null}
h -t 0.15116 -s 2 -d 4 -p cbr -e 210 -c 2 -i 24 -a 2 -x {1.0 4.0 -1 ------- null}
+ -t 0.15208 -s 1 -d 2 -p cbr -e 210 -c 2 -i 31 -a 2 -x {1.0 4.0 31 ------- null}
- -t 0.15208 -s 1 -d 2 -p cbr -e 210 -c 2 -i 31 -a 2 -x {1.0 4.0 31 ------- null}
h -t 0.15208 -s 1 -d 2 -p cbr -e 210 -c 2 -i 31 -a 2 -x {1.0 4.0 -1 ------- null}
r -t 0.15268 -s 2 -d 4 -p cbr -e 210 -c 2 -i 12 -a 2 -x {1.0 4.0 12 ------- null}
r -t 0.15284 -s 1 -d 2 -p cbr -e 210 -c 2 -i 25 -a 2 -x {1.0 4.0 25 ------- null}
+ -t 0.15284 -s 2 -d 4 -p cbr -e 210 -c 2 -i 25 -a 2 -x {1.0 4.0 25 ------- null}
- -t 0.15284 -s 2 -d 4 -p cbr -e 210 -c 2 -i 25 -a 2 -x {1.0 4.0 25 ------- null}
h -t 0.15284 -s 2 -d 4 -p cbr -e 210 -c 2 -i 25 -a 2 -x {1.0 4.0 -1 ------- null}
+ -t 0.15376 -s 1 -d 2 -p cbr -e 210 -c 2 -i 32 -a 2 -x {1.0 4.0 32 ------- null}
- -t 0.15376 -s 1 -d 2 -p cbr -e 210 -c 2 -i 32 -a 2 -x {1.0 4.0 32 ------- null}
h -t 0.15376 -s 1 -d 2 -p cbr -e 210 -c 2 -i 32 -a 2 -x {1.0 4.0 -1 ------- null}
r -t 0.15436 -s 2 -d 4 -p cbr -e 210 -c 2 -i 13 -a 2 -x {1.0 4.0 13 ------- null}
r -t 0.15452 -s 1 -d 2 -p cbr -e 210 -c 2 -i 26 -a 2 -x {1.0 4.0 26 ------- null}
+ -t 0.15452 -s 2 -d 4 -p cbr -e 210 -c 2 -i 26 -a 2 -x {1.0 4.0 26 ------- null}
- -t 0.15452 -s 2 -d 4 -p cbr -e 210 -c 2 -i 26 -a 2 -x {1.0 4.0 26 ------- null}
h -t 0.15452 -s 2 -d 4 -p cbr -e 210 -c 2 -i 26 -a 2 -x {1.0 4.0 -1 ------- null}
+ -t 0.15544 -s 1 -d 2 -p cbr -e 210 -c 2 -i 33 -a 2 -x {1.0 4.0 33 ------- null}
- -t 0.15544 -s 1 -d 2 -p cbr -e 210 -c 2 -i 33 -a 2 -x {1.0 4.0 33 ------- null}
h -t 0.15544 -s 1 -d 2 -p cbr -e 210 -c 2 -i 33 -a 2 -x {1.0 4.0 -1 ------- null}
r -t 0.15604 -s 2 -d 4 -p cbr -e 210 -c 2 -i 14 -a 2 -x {1.0 4.0 14 ------- null}
r -t 0.1562 -s 1 -d 2 -p cbr -e 210 -c 2 -i 27 -a 2 -x {1.0 4.0 27 ------- null}
+ -t 0.1562 -s 2 -d 4 -p cbr -e 210 -c 2 -i 27 -a 2 -x {1.0 4.0 27 ------- null}
- -t 0.1562 -s 2 -d 4 -p cbr -e 210 -c 2 -i 27 -a 2 -x {1.0 4.0 27 ------- null}
h -t 0.1562 -s 2 -d 4 -p cbr -e 210 -c 2 -i 27 -a 2 -x {1.0 4.0 -1 ------- null}
+ -t 0.15712 -s 1 -d 2 -p cbr -e 210 -c 2 -i 34 -a 2 -x {1.0 4.0 34 ------- null}
- -t 0.15712 -s 1 -d 2 -p cbr -e 210 -c 2 -i 34 -a 2 -x {1.0 4.0 34 ------- null}
h -t 0.15712 -s 1 -d 2 -p cbr -e 210 -c 2 -i 34 -a 2 -x {1.0 4.0 -1 ------- null}
r -t 0.15772 -s 2 -d 4 -p cbr -e 210 -c 2 -i 15 -a 2 -x {1.0 4.0 15 ------- null}
r -t 0.15788 -s 1 -d 2 -p cbr -e 210 -c 2 -i 28 -a 2 -x {1.0 4.0 28 ------- null}
+ -t 0.15788 -s 2 -d 4 -p cbr -e 210 -c 2 -i 28 -a 2 -x {1.0 4.0 28 ------- null}
- -t 0.15788 -s 2 -d 4 -p cbr -e 210 -c 2 -i 28 -a 2 -x {1.0 4.0 28 ------- null}
h -t 0.15788 -s 2 -d 4 -p cbr -e 210 -c 2 -i 28 -a 2 -x {1.0 4.0 -1 ------- null}
+ -t 0.1588 -s 1 -d 2 -p cbr -e 210 -c 2 -i 35 -a 2 -x {1.0 4.0 35 ------- null}
- -t 0.1588 -s 1 -d 2 -p cbr -e 210 -c 2 -i 35 -a 2 -x {1.0 4.0 35 ------- null}
h -t 0.1588 -s 1 -d 2 -p cbr -e 210 -c 2 -i 35 -a 2 -x {1.0 4.0 -1 ------- null}
r -t 0.1594 -s 2 -d 4 -p cbr -e 210 -c 2 -i 16 -a 2 -x {1.0 4.0 16 ------- null}
r -t 0.15956 -s 1 -d 2 -p cbr -e 210 -c 2 -i 29 -a 2 -x {1.0 4.0 29 ------- null}
+ -t 0.15956 -s 2 -d 4 -p cbr -e 210 -c 2 -i 29 -a 2 -x {1.0 4.0 29 ------- null}
- -t 0.15956 -s 2 -d 4 -p cbr -e 210 -c 2 -i 29 -a 2 -x {1.0 4.0 29 ------- null}
h -t 0.15956 -s 2 -d 4 -p cbr -e 210 -c 2 -i 29 -a 2 -x {1.0 4.0 -1 ------- null}
+ -t 0.16048 -s 1 -d 2 -p cbr -e 210 -c 2 -i 36 -a 2 -x {1.0 4.0 36 ------- null}
- -t 0.16048 -s 1 -d 2 -p cbr -e 210 -c 2 -i 36 -a 2 -x {1.0 4.0 36 ------- null}
h -t 0.16048 -s 1 -d 2 -p cbr -e 210 -c 2 -i 36 -a 2 -x {1.0 4.0 -1 ------- null}
r -t 0.16108 -s 2 -d 4 -p cbr -e 210 -c 2 -i 17 -a 2 -x {1.0 4.0 17 ------- null}
r -t 0.16124 -s 1 -d 2 -p cbr -e 210 -c 2 -i 30 -a 2 -x {1.0 4.0 30 ------- null}
+ -t 0.16124 -s 2 -d 4 -p cbr -e 210 -c 2 -i 30 -a 2 -x {1.0 4.0 30 ------- null}
- -t 0.16124 -s 2 -d 4 -p cbr -e 210 -c 2 -i 30 -a 2 -x {1.0 4.0 30 ------- null}
h -t 0.16124 -s 2 -d 4 -p cbr -e 210 -c 2 -i 30 -a 2 -x {1.0 4.0 -1 ------- null}
+ -t 0.16216 -s 1 -d 2 -p cbr -e 210 -c 2 -i 37 -a 2 -x {1.0 4.0 37 ------- null}
- -t 0.16216 -s 1 -d 2 -p cbr -e 210 -c 2 -i 37 -a 2 -x {1.0 4.0 37 ------- null}
h -t 0.16216 -s 1 -d 2 -p cbr -e 210 -c 2 -i 37 -a 2 -x {1.0 4.0 -1 ------- null}
r -t 0.16276 -s 2 -d 4 -p cbr -e 210 -c 2 -i 18 -a 2 -x {1.0 4.0 18 ------- null}
r -t 0.16292 -s 1 -d 2 -p cbr -e 210 -c 2 -i 31 -a 2 -x {1.0 4.0 31 ------- null}
+ -t 0.16292 -s 2 -d 4 -p cbr -e 210 -c 2 -i 31 -a 2 -x {1.0 4.0 31 ------- null}
- -t 0.16292 -s 2 -d 4 -p cbr -e 210 -c 2 -i 31 -a 2 -x {1.0 4.0 31 ------- null}
h -t 0.16292 -s 2 -d 4 -p cbr -e 210 -c 2 -i 31 -a 2 -x {1.0 4.0 -1 ------- null}
+ -t 0.16384 -s 1 -d 2 -p cbr -e 210 -c 2 -i 38 -a 2 -x {1.0 4.0 38 ------- null}
- -t 0.16384 -s 1 -d 2 -p cbr -e 210 -c 2 -i 38 -a 2 -x {1.0 4.0 38 ------- null}
h -t 0.16384 -s 1 -d 2 -p cbr -e 210 -c 2 -i 38 -a 2 -x {1.0 4.0 -1 ------- null}
r -t 0.16444 -s 2 -d 4 -p cbr -e 210 -c 2 -i 19 -a 2 -x {1.0 4.0 19 ------- null}
r -t 0.1646 -s 1 -d 2 -p cbr -e 210 -c 2 -i 32 -a 2 -x {1.0 4.0 32 ------- null}
+ -t 0.1646 -s 2 -d 4 -p cbr -e 210 -c 2 -i 32 -a 2 -x {1.0 4.0 32 ------- null}
- -t 0.1646 -s 2 -d 4 -p cbr -e 210 -c 2 -i 32 -a 2 -x {1.0 4.0 32 ------- null}
h -t 0.1646 -s 2 -d 4 -p cbr -e 210 -c 2 -i 32 -a 2 -x {1.0 4.0 -1 ------- null}
+ -t 0.16552 -s 1 -d 2 -p cbr -e 210 -c 2 -i 39 -a 2 -x {1.0 4.0 39 ------- null}
- -t 0.16552 -s 1 -d 2 -p cbr -e 210 -c 2 -i 39 -a 2 -x {1.0 4.0 39 ------- null}
h -t 0.16552 -s 1 -d 2 -p cbr -e 210 -c 2 -i 39 -a 2 -x {1.0 4.0 -1 ------- null}
r -t 0.16612 -s 2 -d 4 -p cbr -e 210 -c 2 -i 20 -a 2 -x {1.0 4.0 20 ------- null}
r -t 0.16628 -s 1 -d 2 -p cbr -e 210 -c 2 -i 33 -a 2 -x {1.0 4.0 33 ------- null}
+ -t 0.16628 -s 2 -d 4 -p cbr -e 210 -c 2 -i 33 -a 2 -x {1.0 4.0 33 ------- null}
- -t 0.16628 -s 2 -d 4 -p cbr -e 210 -c 2 -i 33 -a 2 -x {1.0 4.0 33 ------- null}
h -t 0.16628 -s 2 -d 4 -p cbr -e 210 -c 2 -i 33 -a 2 -x {1.0 4.0 -1 ------- null}
+ -t 0.1672 -s 1 -d 2 -p cbr -e 210 -c 2 -i 40 -a 2 -x {1.0 4.0 40 ------- null}
- -t 0.1672 -s 1 -d 2 -p cbr -e 210 -c 2 -i 40 -a 2 -x {1.0 4.0 40 ------- null}
h -t 0.1672 -s 1 -d 2 -p cbr -e 210 -c 2 -i 40 -a 2 -x {1.0 4.0 -1 ------- null}
r -t 0.1678 -s 2 -d 4 -p cbr -e 210 -c 2 -i 21 -a 2 -x {1.0 4.0 21 ------- null}
r -t 0.16796 -s 1 -d 2 -p cbr -e 210 -c 2 -i 34 -a 2 -x {1.0 4.0 34 ------- null}
+ -t 0.16796 -s 2 -d 4 -p cbr -e 210 -c 2 -i 34 -a 2 -x {1.0 4.0 34 ------- null}
- -t 0.16796 -s 2 -d 4 -p cbr -e 210 -c 2 -i 34 -a 2 -x {1.0 4.0 34 ------- null}
h -t 0.16796 -s 2 -d 4 -p cbr -e 210 -c 2 -i 34 -a 2 -x {1.0 4.0 -1 ------- null}
+ -t 0.16888 -s 1 -d 2 -p cbr -e 210 -c 2 -i 41 -a 2 -x {1.0 4.0 41 ------- null}
- -t 0.16888 -s 1 -d 2 -p cbr -e 210 -c 2 -i 41 -a 2 -x {1.0 4.0 41 ------- null}
h -t 0.16888 -s 1 -d 2 -p cbr -e 210 -c 2 -i 41 -a 2 -x {1.0 4.0 -1 ------- null}
r -t 0.16948 -s 2 -d 4 -p cbr -e 210 -c 2 -i 22 -a 2 -x {1.0 4.0 22 ------- null}
r -t 0.16964 -s 1 -d 2 -p cbr -e 210 -c 2 -i 35 -a 2 -x {1.0 4.0 35 ------- null}
+ -t 0.16964 -s 2 -d 4 -p cbr -e 210 -c 2 -i 35 -a 2 -x {1.0 4.0 35 ------- null}
- -t 0.16964 -s 2 -d 4 -p cbr -e 210 -c 2 -i 35 -a 2 -x {1.0 4.0 35 ------- null}
h -t 0.16964 -s 2 -d 4 -p cbr -e 210 -c 2 -i 35 -a 2 -x {1.0 4.0 -1 ------- null}
+ -t 0.17056 -s 1 -d 2 -p cbr -e 210 -c 2 -i 42 -a 2 -x {1.0 4.0 42 ------- null}
- -t 0.17056 -s 1 -d 2 -p cbr -e 210 -c 2 -i 42 -a 2 -x {1.0 4.0 42 ------- null}
h -t 0.17056 -s 1 -d 2 -p cbr -e 210 -c 2 -i 42 -a 2 -x {1.0 4.0 -1 ------- null}
r -t 0.17116 -s 2 -d 4 -p cbr -e 210 -c 2 -i 23 -a 2 -x {1.0 4.0 23 ------- null}
r -t 0.17132 -s 1 -d 2 -p cbr -e 210 -c 2 -i 36 -a 2 -x {1.0 4.0 36 ------- null}
+ -t 0.17132 -s 2 -d 4 -p cbr -e 210 -c 2 -i 36 -a 2 -x {1.0 4.0 36 ------- null}
- -t 0.17132 -s 2 -d 4 -p cbr -e 210 -c 2 -i 36 -a 2 -x {1.0 4.0 36 ------- null}
h -t 0.17132 -s 2 -d 4 -p cbr -e 210 -c 2 -i 36 -a 2 -x {1.0 4.0 -1 ------- null}
+ -t 0.17224 -s 1 -d 2 -p cbr -e 210 -c 2 -i 43 -a 2 -x {1.0 4.0 43 ------- null}
- -t 0.17224 -s 1 -d 2 -p cbr -e 210 -c 2 -i 43 -a 2 -x {1.0 4.0 43 ------- null}
h -t 0.17224 -s 1 -d 2 -p cbr -e 210 -c 2 -i 43 -a 2 -x {1.0 4.0 -1 ------- null}
r -t 0.17284 -s 2 -d 4 -p cbr -e 210 -c 2 -i 24 -a 2 -x {1.0 4.0 24 ------- null}
r -t 0.173 -s 1 -d 2 -p cbr -e 210 -c 2 -i 37 -a 2 -x {1.0 4.0 37 ------- null}
+ -t 0.173 -s 2 -d 4 -p cbr -e 210 -c 2 -i 37 -a 2 -x {1.0 4.0 37 ------- null}
- -t 0.173 -s 2 -d 4 -p cbr -e 210 -c 2 -i 37 -a 2 -x {1.0 4.0 37 ------- null}
h -t 0.173 -s 2 -d 4 -p cbr -e 210 -c 2 -i 37 -a 2 -x {1.0 4.0 -1 ------- null}
+ -t 0.17392 -s 1 -d 2 -p cbr -e 210 -c 2 -i 44 -a 2 -x {1.0 4.0 44 ------- null}
- -t 0.17392 -s 1 -d 2 -p cbr -e 210 -c 2 -i 44 -a 2 -x {1.0 4.0 44 ------- null}
h -t 0.17392 -s 1 -d 2 -p cbr -e 210 -c 2 -i 44 -a 2 -x {1.0 4.0 -1 ------- null}
r -t 0.17452 -s 2 -d 4 -p cbr -e 210 -c 2 -i 25 -a 2 -x {1.0 4.0 25 ------- null}
r -t 0.17468 -s 1 -d 2 -p cbr -e 210 -c 2 -i 38 -a 2 -x {1.0 4.0 38 ------- null}
+ -t 0.17468 -s 2 -d 4 -p cbr -e 210 -c 2 -i 38 -a 2 -x {1.0 4.0 38 ------- null}
- -t 0.17468 -s 2 -d 4 -p cbr -e 210 -c 2 -i 38 -a 2 -x {1.0 4.0 38 ------- null}
h -t 0.17468 -s 2 -d 4 -p cbr -e 210 -c 2 -i 38 -a 2 -x {1.0 4.0 -1 ------- null}
+ -t 0.1756 -s 1 -d 2 -p cbr -e 210 -c 2 -i 45 -a 2 -x {1.0 4.0 45 ------- null}
- -t 0.1756 -s 1 -d 2 -p cbr -e 210 -c 2 -i 45 -a 2 -x {1.0 4.0 45 ------- null}
h -t 0.1756 -s 1 -d 2 -p cbr -e 210 -c 2 -i 45 -a 2 -x {1.0 4.0 -1 ------- null}
r -t 0.1762 -s 2 -d 4 -p cbr -e 210 -c 2 -i 26 -a 2 -x {1.0 4.0 26 ------- null}
r -t 0.17636 -s 1 -d 2 -p cbr -e 210 -c 2 -i 39 -a 2 -x {1.0 4.0 39 ------- null}
+ -t 0.17636 -s 2 -d 4 -p cbr -e 210 -c 2 -i 39 -a 2 -x {1.0 4.0 39 ------- null}
- -t 0.17636 -s 2 -d 4 -p cbr -e 210 -c 2 -i 39 -a 2 -x {1.0 4.0 39 ------- null}
h -t 0.17636 -s 2 -d 4 -p cbr -e 210 -c 2 -i 39 -a 2 -x {1.0 4.0 -1 ------- null}
+ -t 0.17728 -s 1 -d 2 -p cbr -e 210 -c 2 -i 46 -a 2 -x {1.0 4.0 46 ------- null}
- -t 0.17728 -s 1 -d 2 -p cbr -e 210 -c 2 -i 46 -a 2 -x {1.0 4.0 46 ------- null}
h -t 0.17728 -s 1 -d 2 -p cbr -e 210 -c 2 -i 46 -a 2 -x {1.0 4.0 -1 ------- null}
r -t 0.17788 -s 2 -d 4 -p cbr -e 210 -c 2 -i 27 -a 2 -x {1.0 4.0 27 ------- null}
r -t 0.17804 -s 1 -d 2 -p cbr -e 210 -c 2 -i 40 -a 2 -x {1.0 4.0 40 ------- null}
+ -t 0.17804 -s 2 -d 4 -p cbr -e 210 -c 2 -i 40 -a 2 -x {1.0 4.0 40 ------- null}
- -t 0.17804 -s 2 -d 4 -p cbr -e 210 -c 2 -i 40 -a 2 -x {1.0 4.0 40 ------- null}
h -t 0.17804 -s 2 -d 4 -p cbr -e 210 -c 2 -i 40 -a 2 -x {1.0 4.0 -1 ------- null}
+ -t 0.17896 -s 1 -d 2 -p cbr -e 210 -c 2 -i 47 -a 2 -x {1.0 4.0 47 ------- null}
- -t 0.17896 -s 1 -d 2 -p cbr -e 210 -c 2 -i 47 -a 2 -x {1.0 4.0 47 ------- null}
h -t 0.17896 -s 1 -d 2 -p cbr -e 210 -c 2 -i 47 -a 2 -x {1.0 4.0 -1 ------- null}
r -t 0.17956 -s 2 -d 4 -p cbr -e 210 -c 2 -i 28 -a 2 -x {1.0 4.0 28 ------- null}
r -t 0.17972 -s 1 -d 2 -p cbr -e 210 -c 2 -i 41 -a 2 -x {1.0 4.0 41 ------- null}
+ -t 0.17972 -s 2 -d 4 -p cbr -e 210 -c 2 -i 41 -a 2 -x {1.0 4.0 41 ------- null}
- -t 0.17972 -s 2 -d 4 -p cbr -e 210 -c 2 -i 41 -a 2 -x {1.0 4.0 41 ------- null}
h -t 0.17972 -s 2 -d 4 -p cbr -e 210 -c 2 -i 41 -a 2 -x {1.0 4.0 -1 ------- null}
+ -t 0.18064 -s 1 -d 2 -p cbr -e 210 -c 2 -i 48 -a 2 -x {1.0 4.0 48 ------- null}
- -t 0.18064 -s 1 -d 2 -p cbr -e 210 -c 2 -i 48 -a 2 -x {1.0 4.0 48 ------- null}
h -t 0.18064 -s 1 -d 2 -p cbr -e 210 -c 2 -i 48 -a 2 -x {1.0 4.0 -1 ------- null}
r -t 0.18124 -s 2 -d 4 -p cbr -e 210 -c 2 -i 29 -a 2 -x {1.0 4.0 29 ------- null}
r -t 0.1814 -s 1 -d 2 -p cbr -e 210 -c 2 -i 42 -a 2 -x {1.0 4.0 42 ------- null}
+ -t 0.1814 -s 2 -d 4 -p cbr -e 210 -c 2 -i 42 -a 2 -x {1.0 4.0 42 ------- null}
- -t 0.1814 -s 2 -d 4 -p cbr -e 210 -c 2 -i 42 -a 2 -x {1.0 4.0 42 ------- null}
h -t 0.1814 -s 2 -d 4 -p cbr -e 210 -c 2 -i 42 -a 2 -x {1.0 4.0 -1 ------- null}
+ -t 0.18232 -s 1 -d 2 -p cbr -e 210 -c 2 -i 49 -a 2 -x {1.0 4.0 49 ------- null}
- -t 0.18232 -s 1 -d 2 -p cbr -e 210 -c 2 -i 49 -a 2 -x {1.0 4.0 49 ------- null}
h -t 0.18232 -s 1 -d 2 -p cbr -e 210 -c 2 -i 49 -a 2 -x {1.0 4.0 -1 ------- null}
r -t 0.18292 -s 2 -d 4 -p cbr -e 210 -c 2 -i 30 -a 2 -x {1.0 4.0 30 ------- null}
r -t 0.18308 -s 1 -d 2 -p cbr -e 210 -c 2 -i 43 -a 2 -x {1.0 4.0 43 ------- null}
+ -t 0.18308 -s 2 -d 4 -p cbr -e 210 -c 2 -i 43 -a 2 -x {1.0 4.0 43 ------- null}
- -t 0.18308 -s 2 -d 4 -p cbr -e 210 -c 2 -i 43 -a 2 -x {1.0 4.0 43 ------- null}
h -t 0.18308 -s 2 -d 4 -p cbr -e 210 -c 2 -i 43 -a 2 -x {1.0 4.0 -1 ------- null}
+ -t 0.184 -s 1 -d 2 -p cbr -e 210 -c 2 -i 50 -a 2 -x {1.0 4.0 50 ------- null}
- -t 0.184 -s 1 -d 2 -p cbr -e 210 -c 2 -i 50 -a 2 -x {1.0 4.0 50 ------- null}
h -t 0.184 -s 1 -d 2 -p cbr -e 210 -c 2 -i 50 -a 2 -x {1.0 4.0 -1 ------- null}