+ 0.1 0 2 tcp 40 ------- 2 0.0 3.0 0 0
- 0.1 0 2 tcp 40 ------- 2 0.0 3.0 0 0
r 0.110128 0 2 tcp 40 ------- 2 0.0 3.0 0 0
+ 0.110128 2 3 tcp 40 ------- 2 0.0 3.0 0 0
- 0.110128 2 3 tcp 40 ------- 2 0.0 3.0 0 0
r 0.130341 2 3 tcp 40 ------- 2 0.0 3.0 0 0
+ 0.130341 3 2 ack 40 ------- 2 3.0 0.0 0 1
- 0.130341 3 2 ack 40 ------- 2 3.0 0.0 0 1
r 0.150555 3 2 ack 40 ------- 2 3.0 0.0 0 1
+ 0.150555 2 0 ack 40 ------- 2 3.0 0.0 0 1
- 0.150555 2 0 ack 40 ------- 2 3.0 0.0 0 1
r 0.160683 2 0 ack 40 ------- 2 3.0 0.0 0 1
+ 0.160683 0 2 tcp 1040 ------- 2 0.0 3.0 1 2
- 0.160683 0 2 tcp 1040 ------- 2 0.0 3.0 1 2
+ 0.160683 0 2 tcp 1040 ------- 2 0.0 3.0 2 3
- 0.164011 0 2 tcp 1040 ------- 2 0.0 3.0 2 3
r 0.174011 0 2 tcp 1040 ------- 2 0.0 3.0 1 2
+ 0.174011 2 3 tcp 1040 ------- 2 0.0 3.0 1 2
- 0.174011 2 3 tcp 1040 ------- 2 0.0 3.0 1 2
r 0.177339 0 2 tcp 1040 ------- 2 0.0 3.0 2 3
+ 0.177339 2 3 tcp 1040 ------- 2 0.0 3.0 2 3
- 0.179557 2 3 tcp 1040 ------- 2 0.0 3.0 2 3
r 0.199557 2 3 tcp 1040 ------- 2 0.0 3.0 1 2
+ 0.199557 3 2 ack 40 ------- 2 3.0 0.0 1 4
- 0.199557 3 2 ack 40 ------- 2 3.0 0.0 1 4
r 0.205104 2 3 tcp 1040 ------- 2 0.0 3.0 2 3
+ 0.205104 3 2 ack 40 ------- 2 3.0 0.0 2 5
- 0.205104 3 2 ack 40 ------- 2 3.0 0.0 2 5
r 0.219771 3 2 ack 40 ------- 2 3.0 0.0 1 4
+ 0.219771 2 0 ack 40 ------- 2 3.0 0.0 1 4
- 0.219771 2 0 ack 40 ------- 2 3.0 0.0 1 4
r 0.225317 3 2 ack 40 ------- 2 3.0 0.0 2 5
+ 0.225317 2 0 ack 40 ------- 2 3.0 0.0 2 5
- 0.225317 2 0 ack 40 ------- 2 3.0 0.0 2 5
r 0.229899 2 0 ack 40 ------- 2 3.0 0.0 1 4
+ 0.229899 0 2 tcp 1040 ------- 2 0.0 3.0 3 6
- 0.229899 0 2 tcp 1040 ------- 2 0.0 3.0 3 6
+ 0.229899 0 2 tcp 1040 ------- 2 0.0 3.0 4 7
- 0.233227 0 2 tcp 1040 ------- 2 0.0 3.0 4 7
r 0.235445 2 0 ack 40 ------- 2 3.0 0.0 2 5
+ 0.235445 0 2 tcp 1040 ------- 2 0.0 3.0 5 8
+ 0.235445 0 2 tcp 1040 ------- 2 0.0 3.0 6 9
- 0.236555 0 2 tcp 1040 ------- 2 0.0 3.0 5 8
- 0.239883 0 2 tcp 1040 ------- 2 0.0 3.0 6 9
r 0.243227 0 2 tcp 1040 ------- 2 0.0 3.0 3 6
+ 0.243227 2 3 tcp 1040 ------- 2 0.0 3.0 3 6
- 0.243227 2 3 tcp 1040 ------- 2 0.0 3.0 3 6
r 0.246555 0 2 tcp 1040 ------- 2 0.0 3.0 4 7
+ 0.246555 2 3 tcp 1040 ------- 2 0.0 3.0 4 7
- 0.248773 2 3 tcp 1040 ------- 2 0.0 3.0 4 7
r 0.249883 0 2 tcp 1040 ------- 2 0.0 3.0 5 8
+ 0.249883 2 3 tcp 1040 ------- 2 0.0 3.0 5 8
r 0.253211 0 2 tcp 1040 ------- 2 0.0 3.0 6 9
+ 0.253211 2 3 tcp 1040 ------- 2 0.0 3.0 6 9
- 0.25432 2 3 tcp 1040 ------- 2 0.0 3.0 5 8
- 0.259867 2 3 tcp 1040 ------- 2 0.0 3.0 6 9
r 0.268773 2 3 tcp 1040 ------- 2 0.0 3.0 3 6
+ 0.268773 3 2 ack 40 ------- 2 3.0 0.0 3 10
- 0.268773 3 2 ack 40 ------- 2 3.0 0.0 3 10
r 0.27432 2 3 tcp 1040 ------- 2 0.0 3.0 4 7
+ 0.27432 3 2 ack 40 ------- 2 3.0 0.0 4 11
- 0.27432 3 2 ack 40 ------- 2 3.0 0.0 4 11
r 0.279867 2 3 tcp 1040 ------- 2 0.0 3.0 5 8
+ 0.279867 3 2 ack 40 ------- 2 3.0 0.0 5 12
- 0.279867 3 2 ack 40 ------- 2 3.0 0.0 5 12
r 0.285413 2 3 tcp 1040 ------- 2 0.0 3.0 6 9
+ 0.285413 3 2 ack 40 ------- 2 3.0 0.0 6 13
- 0.285413 3 2 ack 40 ------- 2 3.0 0.0 6 13
r 0.288987 3 2 ack 40 ------- 2 3.0 0.0 3 10
+ 0.288987 2 0 ack 40 ------- 2 3.0 0.0 3 10
- 0.288987 2 0 ack 40 ------- 2 3.0 0.0 3 10
r 0.294533 3 2 ack 40 ------- 2 3.0 0.0 4 11
+ 0.294533 2 0 ack 40 ------- 2 3.0 0.0 4 11
- 0.294533 2 0 ack 40 ------- 2 3.0 0.0 4 11
r 0.299115 2 0 ack 40 ------- 2 3.0 0.0 3 10
+ 0.299115 0 2 tcp 1040 ------- 2 0.0 3.0 7 14
- 0.299115 0 2 tcp 1040 ------- 2 0.0 3.0 7 14
+ 0.299115 0 2 tcp 1040 ------- 2 0.0 3.0 8 15
r 0.30008 3 2 ack 40 ------- 2 3.0 0.0 5 12
+ 0.30008 2 0 ack 40 ------- 2 3.0 0.0 5 12
- 0.30008 2 0 ack 40 ------- 2 3.0 0.0 5 12
- 0.302443 0 2 tcp 1040 ------- 2 0.0 3.0 8 15
r 0.304661 2 0 ack 40 ------- 2 3.0 0.0 4 11
+ 0.304661 0 2 tcp 1040 ------- 2 0.0 3.0 9 16
+ 0.304661 0 2 tcp 1040 ------- 2 0.0 3.0 10 17
r 0.305627 3 2 ack 40 ------- 2 3.0 0.0 6 13
+ 0.305627 2 0 ack 40 ------- 2 3.0 0.0 6 13
- 0.305627 2 0 ack 40 ------- 2 3.0 0.0 6 13
- 0.305771 0 2 tcp 1040 ------- 2 0.0 3.0 9 16
- 0.309099 0 2 tcp 1040 ------- 2 0.0 3.0 10 17
r 0.310208 2 0 ack 40 ------- 2 3.0 0.0 5 12
+ 0.310208 0 2 tcp 1040 ------- 2 0.0 3.0 11 18
+ 0.310208 0 2 tcp 1040 ------- 2 0.0 3.0 12 19
- 0.312427 0 2 tcp 1040 ------- 2 0.0 3.0 11 18
r 0.312443 0 2 tcp 1040 ------- 2 0.0 3.0 7 14
+ 0.312443 2 3 tcp 1040 ------- 2 0.0 3.0 7 14
- 0.312443 2 3 tcp 1040 ------- 2 0.0 3.0 7 14
r 0.315755 2 0 ack 40 ------- 2 3.0 0.0 6 13
+ 0.315755 0 2 tcp 1040 ------- 2 0.0 3.0 13 20
+ 0.315755 0 2 tcp 1040 ------- 2 0.0 3.0 14 21
- 0.315755 0 2 tcp 1040 ------- 2 0.0 3.0 12 19
r 0.315771 0 2 tcp 1040 ------- 2 0.0 3.0 8 15
+ 0.315771 2 3 tcp 1040 ------- 2 0.0 3.0 8 15
- 0.317989 2 3 tcp 1040 ------- 2 0.0 3.0 8 15
- 0.319083 0 2 tcp 1040 ------- 2 0.0 3.0 13 20
r 0.319099 0 2 tcp 1040 ------- 2 0.0 3.0 9 16
+ 0.319099 2 3 tcp 1040 ------- 2 0.0 3.0 9 16
- 0.322411 0 2 tcp 1040 ------- 2 0.0 3.0 14 21
r 0.322427 0 2 tcp 1040 ------- 2 0.0 3.0 10 17
+ 0.322427 2 3 tcp 1040 ------- 2 0.0 3.0 10 17
- 0.323536 2 3 tcp 1040 ------- 2 0.0 3.0 9 16
r 0.325755 0 2 tcp 1040 ------- 2 0.0 3.0 11 18
+ 0.325755 2 3 tcp 1040 ------- 2 0.0 3.0 11 18
- 0.329083 2 3 tcp 1040 ------- 2 0.0 3.0 10 17
r 0.329083 0 2 tcp 1040 ------- 2 0.0 3.0 12 19
+ 0.329083 2 3 tcp 1040 ------- 2 0.0 3.0 12 19
r 0.332411 0 2 tcp 1040 ------- 2 0.0 3.0 13 20
+ 0.332411 2 3 tcp 1040 ------- 2 0.0 3.0 13 20
- 0.334629 2 3 tcp 1040 ------- 2 0.0 3.0 11 18
r 0.335739 0 2 tcp 1040 ------- 2 0.0 3.0 14 21
+ 0.335739 2 3 tcp 1040 ------- 2 0.0 3.0 14 21
r 0.337989 2 3 tcp 1040 ------- 2 0.0 3.0 7 14
+ 0.337989 3 2 ack 40 ------- 2 3.0 0.0 7 22
- 0.337989 3 2 ack 40 ------- 2 3.0 0.0 7 22
- 0.340176 2 3 tcp 1040 ------- 2 0.0 3.0 12 19
r 0.343536 2 3 tcp 1040 ------- 2 0.0 3.0 8 15
+ 0.343536 3 2 ack 40 ------- 2 3.0 0.0 8 23
- 0.343536 3 2 ack 40 ------- 2 3.0 0.0 8 23
- 0.345723 2 3 tcp 1040 ------- 2 0.0 3.0 13 20
r 0.349083 2 3 tcp 1040 ------- 2 0.0 3.0 9 16
+ 0.349083 3 2 ack 40 ------- 2 3.0 0.0 9 24
- 0.349083 3 2 ack 40 ------- 2 3.0 0.0 9 24
- 0.351269 2 3 tcp 1040 ------- 2 0.0 3.0 14 21
r 0.354629 2 3 tcp 1040 ------- 2 0.0 3.0 10 17
+ 0.354629 3 2 ack 40 ------- 2 3.0 0.0 10 25
- 0.354629 3 2 ack 40 ------- 2 3.0 0.0 10 25
r 0.358203 3 2 ack 40 ------- 2 3.0 0.0 7 22
+ 0.358203 2 0 ack 40 ------- 2 3.0 0.0 7 22
- 0.358203 2 0 ack 40 ------- 2 3.0 0.0 7 22
r 0.360176 2 3 tcp 1040 ------- 2 0.0 3.0 11 18
+ 0.360176 3 2 ack 40 ------- 2 3.0 0.0 11 26
- 0.360176 3 2 ack 40 ------- 2 3.0 0.0 11 26
r 0.363749 3 2 ack 40 ------- 2 3.0 0.0 8 23
+ 0.363749 2 0 ack 40 ------- 2 3.0 0.0 8 23
- 0.363749 2 0 ack 40 ------- 2 3.0 0.0 8 23
r 0.365723 2 3 tcp 1040 ------- 2 0.0 3.0 12 19
+ 0.365723 3 2 ack 40 ------- 2 3.0 0.0 12 27
- 0.365723 3 2 ack 40 ------- 2 3.0 0.0 12 27
r 0.368331 2 0 ack 40 ------- 2 3.0 0.0 7 22
+ 0.368331 0 2 tcp 1040 ------- 2 0.0 3.0 15 28
- 0.368331 0 2 tcp 1040 ------- 2 0.0 3.0 15 28
+ 0.368331 0 2 tcp 1040 ------- 2 0.0 3.0 16 29
r 0.369296 3 2 ack 40 ------- 2 3.0 0.0 9 24
+ 0.369296 2 0 ack 40 ------- 2 3.0 0.0 9 24
- 0.369296 2 0 ack 40 ------- 2 3.0 0.0 9 24
r 0.371269 2 3 tcp 1040 ------- 2 0.0 3.0 13 20
+ 0.371269 3 2 ack 40 ------- 2 3.0 0.0 13 30
- 0.371269 3 2 ack 40 ------- 2 3.0 0.0 13 30
- 0.371659 0 2 tcp 1040 ------- 2 0.0 3.0 16 29
r 0.373877 2 0 ack 40 ------- 2 3.0 0.0 8 23
+ 0.373877 0 2 tcp 1040 ------- 2 0.0 3.0 17 31
+ 0.373877 0 2 tcp 1040 ------- 2 0.0 3.0 18 32
r 0.374843 3 2 ack 40 ------- 2 3.0 0.0 10 25
+ 0.374843 2 0 ack 40 ------- 2 3.0 0.0 10 25
- 0.374843 2 0 ack 40 ------- 2 3.0 0.0 10 25
- 0.374987 0 2 tcp 1040 ------- 2 0.0 3.0 17 31
r 0.376816 2 3 tcp 1040 ------- 2 0.0 3.0 14 21
+ 0.376816 3 2 ack 40 ------- 2 3.0 0.0 14 33
- 0.376816 3 2 ack 40 ------- 2 3.0 0.0 14 33
- 0.378315 0 2 tcp 1040 ------- 2 0.0 3.0 18 32
r 0.379424 2 0 ack 40 ------- 2 3.0 0.0 9 24
+ 0.379424 0 2 tcp 1040 ------- 2 0.0 3.0 19 34
+ 0.379424 0 2 tcp 1040 ------- 2 0.0 3.0 20 35
r 0.380389 3 2 ack 40 ------- 2 3.0 0.0 11 26
+ 0.380389 2 0 ack 40 ------- 2 3.0 0.0 11 26
- 0.380389 2 0 ack 40 ------- 2 3.0 0.0 11 26
- 0.381643 0 2 tcp 1040 ------- 2 0.0 3.0 19 34
r 0.381659 0 2 tcp 1040 ------- 2 0.0 3.0 15 28
+ 0.381659 2 3 tcp 1040 ------- 2 0.0 3.0 15 28
- 0.381659 2 3 tcp 1040 ------- 2 0.0 3.0 15 28
r 0.384971 2 0 ack 40 ------- 2 3.0 0.0 10 25
+ 0.384971 0 2 tcp 1040 ------- 2 0.0 3.0 21 36
+ 0.384971 0 2 tcp 1040 ------- 2 0.0 3.0 22 37
- 0.384971 0 2 tcp 1040 ------- 2 0.0 3.0 20 35
r 0.384987 0 2 tcp 1040 ------- 2 0.0 3.0 16 29
+ 0.384987 2 3 tcp 1040 ------- 2 0.0 3.0 16 29
r 0.385936 3 2 ack 40 ------- 2 3.0 0.0 12 27
+ 0.385936 2 0 ack 40 ------- 2 3.0 0.0 12 27
- 0.385936 2 0 ack 40 ------- 2 3.0 0.0 12 27
- 0.387205 2 3 tcp 1040 ------- 2 0.0 3.0 16 29
- 0.388299 0 2 tcp 1040 ------- 2 0.0 3.0 21 36
r 0.388315 0 2 tcp 1040 ------- 2 0.0 3.0 17 31
+ 0.388315 2 3 tcp 1040 ------- 2 0.0 3.0 17 31
r 0.390517 2 0 ack 40 ------- 2 3.0 0.0 11 26
+ 0.390517 0 2 tcp 1040 ------- 2 0.0 3.0 23 38
+ 0.390517 0 2 tcp 1040 ------- 2 0.0 3.0 24 39
r 0.391483 3 2 ack 40 ------- 2 3.0 0.0 13 30
+ 0.391483 2 0 ack 40 ------- 2 3.0 0.0 13 30
- 0.391483 2 0 ack 40 ------- 2 3.0 0.0 13 30
- 0.391627 0 2 tcp 1040 ------- 2 0.0 3.0 22 37
r 0.391643 0 2 tcp 1040 ------- 2 0.0 3.0 18 32
+ 0.391643 2 3 tcp 1040 ------- 2 0.0 3.0 18 32
- 0.392752 2 3 tcp 1040 ------- 2 0.0 3.0 17 31
- 0.394955 0 2 tcp 1040 ------- 2 0.0 3.0 23 38
r 0.394971 0 2 tcp 1040 ------- 2 0.0 3.0 19 34
+ 0.394971 2 3 tcp 1040 ------- 2 0.0 3.0 19 34
r 0.396064 2 0 ack 40 ------- 2 3.0 0.0 12 27
+ 0.396064 0 2 tcp 1040 ------- 2 0.0 3.0 25 40
+ 0.396064 0 2 tcp 1040 ------- 2 0.0 3.0 26 41
r 0.397029 3 2 ack 40 ------- 2 3.0 0.0 14 33
+ 0.397029 2 0 ack 40 ------- 2 3.0 0.0 14 33
- 0.397029 2 0 ack 40 ------- 2 3.0 0.0 14 33
- 0.398283 0 2 tcp 1040 ------- 2 0.0 3.0 24 39
- 0.398299 2 3 tcp 1040 ------- 2 0.0 3.0 18 32
r 0.398299 0 2 tcp 1040 ------- 2 0.0 3.0 20 35
+ 0.398299 2 3 tcp 1040 ------- 2 0.0 3.0 20 35
r 0.401611 2 0 ack 40 ------- 2 3.0 0.0 13 30
+ 0.401611 0 2 tcp 1040 ------- 2 0.0 3.0 27 42
+ 0.401611 0 2 tcp 1040 ------- 2 0.0 3.0 28 43
- 0.401611 0 2 tcp 1040 ------- 2 0.0 3.0 25 40
r 0.401627 0 2 tcp 1040 ------- 2 0.0 3.0 21 36
+ 0.401627 2 3 tcp 1040 ------- 2 0.0 3.0 21 36
- 0.403845 2 3 tcp 1040 ------- 2 0.0 3.0 19 34
- 0.404939 0 2 tcp 1040 ------- 2 0.0 3.0 26 41
r 0.404955 0 2 tcp 1040 ------- 2 0.0 3.0 22 37
+ 0.404955 2 3 tcp 1040 ------- 2 0.0 3.0 22 37
r 0.407157 2 0 ack 40 ------- 2 3.0 0.0 14 33
+ 0.407157 0 2 tcp 1040 ------- 2 0.0 3.0 29 44
+ 0.407157 0 2 tcp 1040 ------- 2 0.0 3.0 30 45
r 0.407205 2 3 tcp 1040 ------- 2 0.0 3.0 15 28
+ 0.407205 3 2 ack 40 ------- 2 3.0 0.0 15 46
- 0.407205 3 2 ack 40 ------- 2 3.0 0.0 15 46
- 0.408267 0 2 tcp 1040 ------- 2 0.0 3.0 27 42
r 0.408283 0 2 tcp 1040 ------- 2 0.0 3.0 23 38
+ 0.408283 2 3 tcp 1040 ------- 2 0.0 3.0 23 38
- 0.409392 2 3 tcp 1040 ------- 2 0.0 3.0 20 35
- 0.411595 0 2 tcp 1040 ------- 2 0.0 3.0 28 43
r 0.411611 0 2 tcp 1040 ------- 2 0.0 3.0 24 39
+ 0.411611 2 3 tcp 1040 ------- 2 0.0 3.0 24 39
r 0.412752 2 3 tcp 1040 ------- 2 0.0 3.0 16 29
+ 0.412752 3 2 ack 40 ------- 2 3.0 0.0 16 47
- 0.412752 3 2 ack 40 ------- 2 3.0 0.0 16 47
- 0.414923 0 2 tcp 1040 ------- 2 0.0 3.0 29 44
- 0.414939 2 3 tcp 1040 ------- 2 0.0 3.0 21 36
r 0.414939 0 2 tcp 1040 ------- 2 0.0 3.0 25 40
+ 0.414939 2 3 tcp 1040 ------- 2 0.0 3.0 25 40
- 0.418251 0 2 tcp 1040 ------- 2 0.0 3.0 30 45
r 0.418267 0 2 tcp 1040 ------- 2 0.0 3.0 26 41
+ 0.418267 2 3 tcp 1040 ------- 2 0.0 3.0 26 41
r 0.418299 2 3 tcp 1040 ------- 2 0.0 3.0 17 31
+ 0.418299 3 2 ack 40 ------- 2 3.0 0.0 17 48
- 0.418299 3 2 ack 40 ------- 2 3.0 0.0 17 48
- 0.420485 2 3 tcp 1040 ------- 2 0.0 3.0 22 37
r 0.421595 0 2 tcp 1040 ------- 2 0.0 3.0 27 42
+ 0.421595 2 3 tcp 1040 ------- 2 0.0 3.0 27 42
r 0.423845 2 3 tcp 1040 ------- 2 0.0 3.0 18 32
+ 0.423845 3 2 ack 40 ------- 2 3.0 0.0 18 49
- 0.423845 3 2 ack 40 ------- 2 3.0 0.0 18 49
r 0.424923 0 2 tcp 1040 ------- 2 0.0 3.0 28 43
+ 0.424923 2 3 tcp 1040 ------- 2 0.0 3.0 28 43
- 0.426032 2 3 tcp 1040 ------- 2 0.0 3.0 23 38
r 0.427419 3 2 ack 40 ------- 2 3.0 0.0 15 46
+ 0.427419 2 0 ack 40 ------- 2 3.0 0.0 15 46
- 0.427419 2 0 ack 40 ------- 2 3.0 0.0 15 46
r 0.428251 0 2 tcp 1040 ------- 2 0.0 3.0 29 44
+ 0.428251 2 3 tcp 1040 ------- 2 0.0 3.0 29 44
r 0.429392 2 3 tcp 1040 ------- 2 0.0 3.0 19 34
+ 0.429392 3 2 ack 40 ------- 2 3.0 0.0 19 50
- 0.429392 3 2 ack 40 ------- 2 3.0 0.0 19 50
- 0.431579 2 3 tcp 1040 ------- 2 0.0 3.0 24 39
r 0.431579 0 2 tcp 1040 ------- 2 0.0 3.0 30 45
+ 0.431579 2 3 tcp 1040 ------- 2 0.0 3.0 30 45
r 0.432965 3 2 ack 40 ------- 2 3.0 0.0 16 47
+ 0.432965 2 0 ack 40 ------- 2 3.0 0.0 16 47
- 0.432965 2 0 ack 40 ------- 2 3.0 0.0 16 47
r 0.434939 2 3 tcp 1040 ------- 2 0.0 3.0 20 35
+ 0.434939 3 2 ack 40 ------- 2 3.0 0.0 20 51
- 0.434939 3 2 ack 40 ------- 2 3.0 0.0 20 51
- 0.437125 2 3 tcp 1040 ------- 2 0.0 3.0 25 40
r 0.437547 2 0 ack 40 ------- 2 3.0 0.0 15 46
+ 0.437547 0 2 tcp 1040 ------- 2 0.0 3.0 31 52
- 0.437547 0 2 tcp 1040 ------- 2 0.0 3.0 31 52
+ 0.437547 0 2 tcp 1040 ------- 2 0.0 3.0 32 53
r 0.438512 3 2 ack 40 ------- 2 3.0 0.0 17 48
+ 0.438512 2 0 ack 40 ------- 2 3.0 0.0 17 48
- 0.438512 2 0 ack 40 ------- 2 3.0 0.0 17 48
r 0.440485 2 3 tcp 1040 ------- 2 0.0 3.0 21 36
+ 0.440485 3 2 ack 40 ------- 2 3.0 0.0 21 54
- 0.440485 3 2 ack 40 ------- 2 3.0 0.0 21 54
- 0.440875 0 2 tcp 1040 ------- 2 0.0 3.0 32 53
- 0.442672 2 3 tcp 1040 ------- 2 0.0 3.0 26 41
r 0.443093 2 0 ack 40 ------- 2 3.0 0.0 16 47
+ 0.443093 0 2 tcp 1040 ------- 2 0.0 3.0 33 55
+ 0.443093 0 2 tcp 1040 ------- 2 0.0 3.0 34 56
r 0.444059 3 2 ack 40 ------- 2 3.0 0.0 18 49
+ 0.444059 2 0 ack 40 ------- 2 3.0 0.0 18 49
- 0.444059 2 0 ack 40 ------- 2 3.0 0.0 18 49
- 0.444203 0 2 tcp 1040 ------- 2 0.0 3.0 33 55
r 0.446032 2 3 tcp 1040 ------- 2 0.0 3.0 22 37
+ 0.446032 3 2 ack 40 ------- 2 3.0 0.0 22 57
- 0.446032 3 2 ack 40 ------- 2 3.0 0.0 22 57
- 0.447531 0 2 tcp 1040 ------- 2 0.0 3.0 34 56
- 0.448219 2 3 tcp 1040 ------- 2 0.0 3.0 27 42
r 0.44864 2 0 ack 40 ------- 2 3.0 0.0 17 48
+ 0.44864 0 2 tcp 1040 ------- 2 0.0 3.0 35 58
+ 0.44864 0 2 tcp 1040 ------- 2 0.0 3.0 36 59
r 0.449605 3 2 ack 40 ------- 2 3.0 0.0 19 50
+ 0.449605 2 0 ack 40 ------- 2 3.0 0.0 19 50
- 0.449605 2 0 ack 40 ------- 2 3.0 0.0 19 50
- 0.450859 0 2 tcp 1040 ------- 2 0.0 3.0 35 58
r 0.450875 0 2 tcp 1040 ------- 2 0.0 3.0 31 52
+ 0.450875 2 3 tcp 1040 ------- 2 0.0 3.0 31 52
r 0.451579 2 3 tcp 1040 ------- 2 0.0 3.0 23 38
+ 0.451579 3 2 ack 40 ------- 2 3.0 0.0 23 60
- 0.451579 3 2 ack 40 ------- 2 3.0 0.0 23 60
- 0.453765 2 3 tcp 1040 ------- 2 0.0 3.0 28 43
r 0.454187 2 0 ack 40 ------- 2 3.0 0.0 18 49
+ 0.454187 0 2 tcp 1040 ------- 2 0.0 3.0 37 61
+ 0.454187 0 2 tcp 1040 ------- 2 0.0 3.0 38 62
- 0.454187 0 2 tcp 1040 ------- 2 0.0 3.0 36 59
r 0.454203 0 2 tcp 1040 ------- 2 0.0 3.0 32 53
+ 0.454203 2 3 tcp 1040 ------- 2 0.0 3.0 32 53
r 0.455152 3 2 ack 40 ------- 2 3.0 0.0 20 51
+ 0.455152 2 0 ack 40 ------- 2 3.0 0.0 20 51
- 0.455152 2 0 ack 40 ------- 2 3.0 0.0 20 51
r 0.457125 2 3 tcp 1040 ------- 2 0.0 3.0 24 39
+ 0.457125 3 2 ack 40 ------- 2 3.0 0.0 24 63
- 0.457125 3 2 ack 40 ------- 2 3.0 0.0 24 63
- 0.457515 0 2 tcp 1040 ------- 2 0.0 3.0 37 61
r 0.457531 0 2 tcp 1040 ------- 2 0.0 3.0 33 55
+ 0.457531 2 3 tcp 1040 ------- 2 0.0 3.0 33 55
- 0.459312 2 3 tcp 1040 ------- 2 0.0 3.0 29 44
r 0.459733 2 0 ack 40 ------- 2 3.0 0.0 19 50
+ 0.459733 0 2 tcp 1040 ------- 2 0.0 3.0 39 64
r 0.460699 3 2 ack 40 ------- 2 3.0 0.0 21 54
+ 0.460699 2 0 ack 40 ------- 2 3.0 0.0 21 54
- 0.460699 2 0 ack 40 ------- 2 3.0 0.0 21 54
- 0.460843 0 2 tcp 1040 ------- 2 0.0 3.0 38 62
r 0.460859 0 2 tcp 1040 ------- 2 0.0 3.0 34 56
+ 0.460859 2 3 tcp 1040 ------- 2 0.0 3.0 34 56
r 0.462672 2 3 tcp 1040 ------- 2 0.0 3.0 25 40
+ 0.462672 3 2 ack 40 ------- 2 3.0 0.0 25 65
- 0.462672 3 2 ack 40 ------- 2 3.0 0.0 25 65
- 0.464171 0 2 tcp 1040 ------- 2 0.0 3.0 39 64
r 0.464187 0 2 tcp 1040 ------- 2 0.0 3.0 35 58
+ 0.464187 2 3 tcp 1040 ------- 2 0.0 3.0 35 58
- 0.464859 2 3 tcp 1040 ------- 2 0.0 3.0 30 45
r 0.46528 2 0 ack 40 ------- 2 3.0 0.0 20 51
+ 0.46528 0 2 tcp 1040 ------- 2 0.0 3.0 40 66
r 0.466245 3 2 ack 40 ------- 2 3.0 0.0 22 57
+ 0.466245 2 0 ack 40 ------- 2 3.0 0.0 22 57
- 0.466245 2 0 ack 40 ------- 2 3.0 0.0 22 57
- 0.467499 0 2 tcp 1040 ------- 2 0.0 3.0 40 66
r 0.467515 0 2 tcp 1040 ------- 2 0.0 3.0 36 59
+ 0.467515 2 3 tcp 1040 ------- 2 0.0 3.0 36 59
r 0.468219 2 3 tcp 1040 ------- 2 0.0 3.0 26 41
+ 0.468219 3 2 ack 40 ------- 2 3.0 0.0 26 67
- 0.468219 3 2 ack 40 ------- 2 3.0 0.0 26 67
- 0.470405 2 3 tcp 1040 ------- 2 0.0 3.0 31 52
r 0.470827 2 0 ack 40 ------- 2 3.0 0.0 21 54
+ 0.470827 0 2 tcp 1040 ------- 2 0.0 3.0 41 68
- 0.470827 0 2 tcp 1040 ------- 2 0.0 3.0 41 68
r 0.470843 0 2 tcp 1040 ------- 2 0.0 3.0 37 61
+ 0.470843 2 3 tcp 1040 ------- 2 0.0 3.0 37 61
r 0.471792 3 2 ack 40 ------- 2 3.0 0.0 23 60
+ 0.471792 2 0 ack 40 ------- 2 3.0 0.0 23 60
- 0.471792 2 0 ack 40 ------- 2 3.0 0.0 23 60
r 0.473765 2 3 tcp 1040 ------- 2 0.0 3.0 27 42
+ 0.473765 3 2 ack 40 ------- 2 3.0 0.0 27 69
- 0.473765 3 2 ack 40 ------- 2 3.0 0.0 27 69
r 0.474171 0 2 tcp 1040 ------- 2 0.0 3.0 38 62
+ 0.474171 2 3 tcp 1040 ------- 2 0.0 3.0 38 62
- 0.475952 2 3 tcp 1040 ------- 2 0.0 3.0 32 53
r 0.476373 2 0 ack 40 ------- 2 3.0 0.0 22 57
+ 0.476373 0 2 tcp 1040 ------- 2 0.0 3.0 42 70
- 0.476373 0 2 tcp 1040 ------- 2 0.0 3.0 42 70
r 0.477339 3 2 ack 40 ------- 2 3.0 0.0 24 63
+ 0.477339 2 0 ack 40 ------- 2 3.0 0.0 24 63
- 0.477339 2 0 ack 40 ------- 2 3.0 0.0 24 63
r 0.477499 0 2 tcp 1040 ------- 2 0.0 3.0 39 64
+ 0.477499 2 3 tcp 1040 ------- 2 0.0 3.0 39 64
r 0.479312 2 3 tcp 1040 ------- 2 0.0 3.0 28 43
+ 0.479312 3 2 ack 40 ------- 2 3.0 0.0 28 71
- 0.479312 3 2 ack 40 ------- 2 3.0 0.0 28 71
r 0.480827 0 2 tcp 1040 ------- 2 0.0 3.0 40 66
+ 0.480827 2 3 tcp 1040 ------- 2 0.0 3.0 40 66
- 0.481499 2 3 tcp 1040 ------- 2 0.0 3.0 33 55
r 0.48192 2 0 ack 40 ------- 2 3.0 0.0 23 60
+ 0.48192 0 2 tcp 1040 ------- 2 0.0 3.0 43 72
- 0.48192 0 2 tcp 1040 ------- 2 0.0 3.0 43 72
r 0.482885 3 2 ack 40 ------- 2 3.0 0.0 25 65
+ 0.482885 2 0 ack 40 ------- 2 3.0 0.0 25 65
- 0.482885 2 0 ack 40 ------- 2 3.0 0.0 25 65
r 0.484155 0 2 tcp 1040 ------- 2 0.0 3.0 41 68
+ 0.484155 2 3 tcp 1040 ------- 2 0.0 3.0 41 68
r 0.484859 2 3 tcp 1040 ------- 2 0.0 3.0 29 44
+ 0.484859 3 2 ack 40 ------- 2 3.0 0.0 29 73
- 0.484859 3 2 ack 40 ------- 2 3.0 0.0 29 73
- 0.487045 2 3 tcp 1040 ------- 2 0.0 3.0 34 56
r 0.487467 2 0 ack 40 ------- 2 3.0 0.0 24 63
+ 0.487467 0 2 tcp 1040 ------- 2 0.0 3.0 44 74
- 0.487467 0 2 tcp 1040 ------- 2 0.0 3.0 44 74
r 0.488432 3 2 ack 40 ------- 2 3.0 0.0 26 67
+ 0.488432 2 0 ack 40 ------- 2 3.0 0.0 26 67
- 0.488432 2 0 ack 40 ------- 2 3.0 0.0 26 67
r 0.489701 0 2 tcp 1040 ------- 2 0.0 3.0 42 70
+ 0.489701 2 3 tcp 1040 ------- 2 0.0 3.0 42 70
r 0.490405 2 3 tcp 1040 ------- 2 0.0 3.0 30 45
+ 0.490405 3 2 ack 40 ------- 2 3.0 0.0 30 75
- 0.490405 3 2 ack 40 ------- 2 3.0 0.0 30 75
- 0.492592 2 3 tcp 1040 ------- 2 0.0 3.0 35 58
r 0.493013 2 0 ack 40 ------- 2 3.0 0.0 25 65
+ 0.493013 0 2 tcp 1040 ------- 2 0.0 3.0 45 76
- 0.493013 0 2 tcp 1040 ------- 2 0.0 3.0 45 76
r 0.493979 3 2 ack 40 ------- 2 3.0 0.0 27 69
+ 0.493979 2 0 ack 40 ------- 2 3.0 0.0 27 69
- 0.493979 2 0 ack 40 ------- 2 3.0 0.0 27 69
r 0.495248 0 2 tcp 1040 ------- 2 0.0 3.0 43 72
+ 0.495248 2 3 tcp 1040 ------- 2 0.0 3.0 43 72
r 0.495952 2 3 tcp 1040 ------- 2 0.0 3.0 31 52
+ 0.495952 3 2 ack 40 ------- 2 3.0 0.0 31 77
- 0.495952 3 2 ack 40 ------- 2 3.0 0.0 31 77
- 0.498139 2 3 tcp 1040 ------- 2 0.0 3.0 36 59
r 0.49856 2 0 ack 40 ------- 2 3.0 0.0 26 67
+ 0.49856 0 2 tcp 1040 ------- 2 0.0 3.0 46 78
- 0.49856 0 2 tcp 1040 ------- 2 0.0 3.0 46 78
r 0.499525 3 2 ack 40 ------- 2 3.0 0.0 28 71
+ 0.499525 2 0 ack 40 ------- 2 3.0 0.0 28 71
- 0.499525 2 0 ack 40 ------- 2 3.0 0.0 28 71
r 0.500795 0 2 tcp 1040 ------- 2 0.0 3.0 44 74
+ 0.500795 2 3 tcp 1040 ------- 2 0.0 3.0 44 74
r 0.501499 2 3 tcp 1040 ------- 2 0.0 3.0 32 53
+ 0.501499 3 2 ack 40 ------- 2 3.0 0.0 32 79
- 0.501499 3 2 ack 40 ------- 2 3.0 0.0 32 79
- 0.503685 2 3 tcp 1040 ------- 2 0.0 3.0 37 61
r 0.504107 2 0 ack 40 ------- 2 3.0 0.0 27 69
+ 0.504107 0 2 tcp 1040 ------- 2 0.0 3.0 47 80
- 0.504107 0 2 tcp 1040 ------- 2 0.0 3.0 47 80
r 0.505072 3 2 ack 40 ------- 2 3.0 0.0 29 73
+ 0.505072 2 0 ack 40 ------- 2 3.0 0.0 29 73
- 0.505072 2 0 ack 40 ------- 2 3.0 0.0 29 73
r 0.506341 0 2 tcp 1040 ------- 2 0.0 3.0 45 76
+ 0.506341 2 3 tcp 1040 ------- 2 0.0 3.0 45 76
r 0.507045 2 3 tcp 1040 ------- 2 0.0 3.0 33 55
+ 0.507045 3 2 ack 40 ------- 2 3.0 0.0 33 81
- 0.507045 3 2 ack 40 ------- 2 3.0 0.0 33 81
- 0.509232 2 3 tcp 1040 ------- 2 0.0 3.0 38 62
r 0.509653 2 0 ack 40 ------- 2 3.0 0.0 28 71
+ 0.509653 0 2 tcp 1040 ------- 2 0.0 3.0 48 82
- 0.509653 0 2 tcp 1040 ------- 2 0.0 3.0 48 82
r 0.510619 3 2 ack 40 ------- 2 3.0 0.0 30 75
+ 0.510619 2 0 ack 40 ------- 2 3.0 0.0 30 75
- 0.510619 2 0 ack 40 ------- 2 3.0 0.0 30 75
r 0.511888 0 2 tcp 1040 ------- 2 0.0 3.0 46 78
+ 0.511888 2 3 tcp 1040 ------- 2 0.0 3.0 46 78
r 0.512592 2 3 tcp 1040 ------- 2 0.0 3.0 34 56
+ 0.512592 3 2 ack 40 ------- 2 3.0 0.0 34 83
- 0.512592 3 2 ack 40 ------- 2 3.0 0.0 34 83
- 0.514779 2 3 tcp 1040 ------- 2 0.0 3.0 39 64
r 0.5152 2 0 ack 40 ------- 2 3.0 0.0 29 73
+ 0.5152 0 2 tcp 1040 ------- 2 0.0 3.0 49 84
- 0.5152 0 2 tcp 1040 ------- 2 0.0 3.0 49 84
r 0.516165 3 2 ack 40 ------- 2 3.0 0.0 31 77
+ 0.516165 2 0 ack 40 ------- 2 3.0 0.0 31 77
- 0.516165 2 0 ack 40 ------- 2 3.0 0.0 31 77
r 0.517435 0 2 tcp 1040 ------- 2 0.0 3.0 47 80
+ 0.517435 2 3 tcp 1040 ------- 2 0.0 3.0 47 80
r 0.518139 2 3 tcp 1040 ------- 2 0.0 3.0 35 58
+ 0.518139 3 2 ack 40 ------- 2 3.0 0.0 35 85
- 0.518139 3 2 ack 40 ------- 2 3.0 0.0 35 85
- 0.520325 2 3 tcp 1040 ------- 2 0.0 3.0 40 66
r 0.520747 2 0 ack 40 ------- 2 3.0 0.0 30 75
+ 0.520747 0 2 tcp 1040 ------- 2 0.0 3.0 50 86
- 0.520747 0 2 tcp 1040 ------- 2 0.0 3.0 50 86
r 0.521712 3 2 ack 40 ------- 2 3.0 0.0 32 79
+ 0.521712 2 0 ack 40 ------- 2 3.0 0.0 32 79
- 0.521712 2 0 ack 40 ------- 2 3.0 0.0 32 79
r 0.522981 0 2 tcp 1040 ------- 2 0.0 3.0 48 82
+ 0.522981 2 3 tcp 1040 ------- 2 0.0 3.0 48 82
r 0.523685 2 3 tcp 1040 ------- 2 0.0 3.0 36 59
+ 0.523685 3 2 ack 40 ------- 2 3.0 0.0 36 87
- 0.523685 3 2 ack 40 ------- 2 3.0 0.0 36 87
- 0.525872 2 3 tcp 1040 ------- 2 0.0 3.0 41 68
r 0.526293 2 0 ack 40 ------- 2 3.0 0.0 31 77
+ 0.526293 0 2 tcp 1040 ------- 2 0.0 3.0 51 88
- 0.526293 0 2 tcp 1040 ------- 2 0.0 3.0 51 88
r 0.527259 3 2 ack 40 ------- 2 3.0 0.0 33 81
+ 0.527259 2 0 ack 40 ------- 2 3.0 0.0 33 81
- 0.527259 2 0 ack 40 ------- 2 3.0 0.0 33 81
r 0.528528 0 2 tcp 1040 ------- 2 0.0 3.0 49 84
+ 0.528528 2 3 tcp 1040 ------- 2 0.0 3.0 49 84
r 0.529232 2 3 tcp 1040 ------- 2 0.0 3.0 37 61
+ 0.529232 3 2 ack 40 ------- 2 3.0 0.0 37 89
- 0.529232 3 2 ack 40 ------- 2 3.0 0.0 37 89
- 0.531419 2 3 tcp 1040 ------- 2 0.0 3.0 42 70
r 0.53184 2 0 ack 40 ------- 2 3.0 0.0 32 79
+ 0.53184 0 2 tcp 1040 ------- 2 0.0 3.0 52 90
- 0.53184 0 2 tcp 1040 ------- 2 0.0 3.0 52 90
r 0.532805 3 2 ack 40 ------- 2 3.0 0.0 34 83
+ 0.532805 2 0 ack 40 ------- 2 3.0 0.0 34 83
- 0.532805 2 0 ack 40 ------- 2 3.0 0.0 34 83
r 0.534075 0 2 tcp 1040 ------- 2 0.0 3.0 50 86
+ 0.534075 2 3 tcp 1040 ------- 2 0.0 3.0 50 86
r 0.534779 2 3 tcp 1040 ------- 2 0.0 3.0 38 62
+ 0.534779 3 2 ack 40 ------- 2 3.0 0.0 38 91
- 0.534779 3 2 ack 40 ------- 2 3.0 0.0 38 91
- 0.536965 2 3 tcp 1040 ------- 2 0.0 3.0 43 72
r 0.537387 2 0 ack 40 ------- 2 3.0 0.0 33 81
+ 0.537387 0 2 tcp 1040 ------- 2 0.0 3.0 53 92
- 0.537387 0 2 tcp 1040 ------- 2 0.0 3.0 53 92
r 0.538352 3 2 ack 40 ------- 2 3.0 0.0 35 85
+ 0.538352 2 0 ack 40 ------- 2 3.0 0.0 35 85
- 0.538352 2 0 ack 40 ------- 2 3.0 0.0 35 85
r 0.539621 0 2 tcp 1040 ------- 2 0.0 3.0 51 88
+ 0.539621 2 3 tcp 1040 ------- 2 0.0 3.0 51 88
r 0.540325 2 3 tcp 1040 ------- 2 0.0 3.0 39 64
+ 0.540325 3 2 ack 40 ------- 2 3.0 0.0 39 93
- 0.540325 3 2 ack 40 ------- 2 3.0 0.0 39 93
- 0.542512 2 3 tcp 1040 ------- 2 0.0 3.0 44 74
r 0.542933 2 0 ack 40 ------- 2 3.0 0.0 34 83
+ 0.542933 0 2 tcp 1040 ------- 2 0.0 3.0 54 94
- 0.542933 0 2 tcp 1040 ------- 2 0.0 3.0 54 94
r 0.543899 3 2 ack 40 ------- 2 3.0 0.0 36 87
+ 0.543899 2 0 ack 40 ------- 2 3.0 0.0 36 87
- 0.543899 2 0 ack 40 ------- 2 3.0 0.0 36 87
r 0.545168 0 2 tcp 1040 ------- 2 0.0 3.0 52 90
+ 0.545168 2 3 tcp 1040 ------- 2 0.0 3.0 52 90
r 0.545872 2 3 tcp 1040 ------- 2 0.0 3.0 40 66
+ 0.545872 3 2 ack 40 ------- 2 3.0 0.0 40 95
- 0.545872 3 2 ack 40 ------- 2 3.0 0.0 40 95
- 0.548059 2 3 tcp 1040 ------- 2 0.0 3.0 45 76
r 0.54848 2 0 ack 40 ------- 2 3.0 0.0 35 85
+ 0.54848 0 2 tcp 1040 ------- 2 0.0 3.0 55 96
- 0.54848 0 2 tcp 1040 ------- 2 0.0 3.0 55 96
r 0.549445 3 2 ack 40 ------- 2 3.0 0.0 37 89
+ 0.549445 2 0 ack 40 ------- 2 3.0 0.0 37 89
- 0.549445 2 0 ack 40 ------- 2 3.0 0.0 37 89
r 0.550715 0 2 tcp 1040 ------- 2 0.0 3.0 53 92
+ 0.550715 2 3 tcp 1040 ------- 2 0.0 3.0 53 92
r 0.551419 2 3 tcp 1040 ------- 2 0.0 3.0 41 68
+ 0.551419 3 2 ack 40 ------- 2 3.0 0.0 41 97
- 0.551419 3 2 ack 40 ------- 2 3.0 0.0 41 97
- 0.553605 2 3 tcp 1040 ------- 2 0.0 3.0 46 78
r 0.554027 2 0 ack 40 ------- 2 3.0 0.0 36 87
+ 0.554027 0 2 tcp 1040 ------- 2 0.0 3.0 56 98
- 0.554027 0 2 tcp 1040 ------- 2 0.0 3.0 56 98
r 0.554992 3 2 ack 40 ------- 2 3.0 0.0 38 91
+ 0.554992 2 0 ack 40 ------- 2 3.0 0.0 38 91
- 0.554992 2 0 ack 40 ------- 2 3.0 0.0 38 91
r 0.556261 0 2 tcp 1040 ------- 2 0.0 3.0 54 94
+ 0.556261 2 3 tcp 1040 ------- 2 0.0 3.0 54 94
r 0.556965 2 3 tcp 1040 ------- 2 0.0 3.0 42 70
+ 0.556965 3 2 ack 40 ------- 2 3.0 0.0 42 99
- 0.556965 3 2 ack 40 ------- 2 3.0 0.0 42 99
- 0.559152 2 3 tcp 1040 ------- 2 0.0 3.0 47 80
r 0.559573 2 0 ack 40 ------- 2 3.0 0.0 37 89
+ 0.559573 0 2 tcp 1040 ------- 2 0.0 3.0 57 100
- 0.559573 0 2 tcp 1040 ------- 2 0.0 3.0 57 100
r 0.560539 3 2 ack 40 ------- 2 3.0 0.0 39 93
+ 0.560539 2 0 ack 40 ------- 2 3.0 0.0 39 93
- 0.560539 2 0 ack 40 ------- 2 3.0 0.0 39 93
r 0.561808 0 2 tcp 1040 ------- 2 0.0 3.0 55 96
+ 0.561808 2 3 tcp 1040 ------- 2 0.0 3.0 55 96
r 0.562512 2 3 tcp 1040 ------- 2 0.0 3.0 43 72
+ 0.562512 3 2 ack 40 ------- 2 3.0 0.0 43 101
- 0.562512 3 2 ack 40 ------- 2 3.0 0.0 43 101
- 0.564699 2 3 tcp 1040 ------- 2 0.0 3.0 48 82
r 0.56512 2 0 ack 40 ------- 2 3.0 0.0 38 91
+ 0.56512 0 2 tcp 1040 ------- 2 0.0 3.0 58 102
- 0.56512 0 2 tcp 1040 ------- 2 0.0 3.0 58 102
r 0.566085 3 2 ack 40 ------- 2 3.0 0.0 40 95
+ 0.566085 2 0 ack 40 ------- 2 3.0 0.0 40 95
- 0.566085 2 0 ack 40 ------- 2 3.0 0.0 40 95
r 0.567355 0 2 tcp 1040 ------- 2 0.0 3.0 56 98
+ 0.567355 2 3 tcp 1040 ------- 2 0.0 3.0 56 98
r 0.568059 2 3 tcp 1040 ------- 2 0.0 3.0 44 74
+ 0.568059 3 2 ack 40 ------- 2 3.0 0.0 44 103
- 0.568059 3 2 ack 40 ------- 2 3.0 0.0 44 103
- 0.570245 2 3 tcp 1040 ------- 2 0.0 3.0 49 84
r 0.570667 2 0 ack 40 ------- 2 3.0 0.0 39 93
+ 0.570667 0 2 tcp 1040 ------- 2 0.0 3.0 59 104
- 0.570667 0 2 tcp 1040 ------- 2 0.0 3.0 59 104
r 0.571632 3 2 ack 40 ------- 2 3.0 0.0 41 97
+ 0.571632 2 0 ack 40 ------- 2 3.0 0.0 41 97
- 0.571632 2 0 ack 40 ------- 2 3.0 0.0 41 97
r 0.572901 0 2 tcp 1040 ------- 2 0.0 3.0 57 100
+ 0.572901 2 3 tcp 1040 ------- 2 0.0 3.0 57 100
r 0.573605 2 3 tcp 1040 ------- 2 0.0 3.0 45 76
+ 0.573605 3 2 ack 40 ------- 2 3.0 0.0 45 105
- 0.573605 3 2 ack 40 ------- 2 3.0 0.0 45 105
- 0.575792 2 3 tcp 1040 ------- 2 0.0 3.0 50 86
r 0.576213 2 0 ack 40 ------- 2 3.0 0.0 40 95
+ 0.576213 0 2 tcp 1040 ------- 2 0.0 3.0 60 106
- 0.576213 0 2 tcp 1040 ------- 2 0.0 3.0 60 106
r 0.577179 3 2 ack 40 ------- 2 3.0 0.0 42 99
+ 0.577179 2 0 ack 40 ------- 2 3.0 0.0 42 99
- 0.577179 2 0 ack 40 ------- 2 3.0 0.0 42 99
r 0.578448 0 2 tcp 1040 ------- 2 0.0 3.0 58 102
+ 0.578448 2 3 tcp 1040 ------- 2 0.0 3.0 58 102
r 0.579152 2 3 tcp 1040 ------- 2 0.0 3.0 46 78
+ 0.579152 3 2 ack 40 ------- 2 3.0 0.0 46 107
- 0.579152 3 2 ack 40 ------- 2 3.0 0.0 46 107
- 0.581339 2 3 tcp 1040 ------- 2 0.0 3.0 51 88
r 0.58176 2 0 ack 40 ------- 2 3.0 0.0 41 97
+ 0.58176 0 2 tcp 1040 ------- 2 0.0 3.0 61 108
- 0.58176 0 2 tcp 1040 ------- 2 0.0 3.0 61 108
r 0.582725 3 2 ack 40 ------- 2 3.0 0.0 43 101
+ 0.582725 2 0 ack 40 ------- 2 3.0 0.0 43 101
- 0.582725 2 0 ack 40 ------- 2 3.0 0.0 43 101
r 0.583995 0 2 tcp 1040 ------- 2 0.0 3.0 59 104
+ 0.583995 2 3 tcp 1040 ------- 2 0.0 3.0 59 104
r 0.584699 2 3 tcp 1040 ------- 2 0.0 3.0 47 80
+ 0.584699 3 2 ack 40 ------- 2 3.0 0.0 47 109
- 0.584699 3 2 ack 40 ------- 2 3.0 0.0 47 109
- 0.586885 2 3 tcp 1040 ------- 2 0.0 3.0 52 90
r 0.587307 2 0 ack 40 ------- 2 3.0 0.0 42 99
+ 0.587307 0 2 tcp 1040 ------- 2 0.0 3.0 62 110
- 0.587307 0 2 tcp 1040 ------- 2 0.0 3.0 62 110
r 0.588272 3 2 ack 40 ------- 2 3.0 0.0 44 103
+ 0.588272 2 0 ack 40 ------- 2 3.0 0.0 44 103
- 0.588272 2 0 ack 40 ------- 2 3.0 0.0 44 103
r 0.589541 0 2 tcp 1040 ------- 2 0.0 3.0 60 106
+ 0.589541 2 3 tcp 1040 ------- 2 0.0 3.0 60 106
r 0.590245 2 3 tcp 1040 ------- 2 0.0 3.0 48 82
+ 0.590245 3 2 ack 40 ------- 2 3.0 0.0 48 111
- 0.590245 3 2 ack 40 ------- 2 3.0 0.0 48 111
- 0.592432 2 3 tcp 1040 ------- 2 0.0 3.0 53 92
r 0.592853 2 0 ack 40 ------- 2 3.0 0.0 43 101
+ 0.592853 0 2 tcp 1040 ------- 2 0.0 3.0 63 112
- 0.592853 0 2 tcp 1040 ------- 2 0.0 3.0 63 112
r 0.593819 3 2 ack 40 ------- 2 3.0 0.0 45 105
+ 0.593819 2 0 ack 40 ------- 2 3.0 0.0 45 105
- 0.593819 2 0 ack 40 ------- 2 3.0 0.0 45 105
r 0.595088 0 2 tcp 1040 ------- 2 0.0 3.0 61 108
+ 0.595088 2 3 tcp 1040 ------- 2 0.0 3.0 61 108
r 0.595792 2 3 tcp 1040 ------- 2 0.0 3.0 49 84
+ 0.595792 3 2 ack 40 ------- 2 3.0 0.0 49 113
- 0.595792 3 2 ack 40 ------- 2 3.0 0.0 49 113
- 0.597979 2 3 tcp 1040 ------- 2 0.0 3.0 54 94
r 0.5984 2 0 ack 40 ------- 2 3.0 0.0 44 103