V -t * -v 1.0a5 -a 0
A -t * -n 1 -p 0 -o 0x7fffffff -c 30 -a 1
A -t * -h 1 -m 1073741823 -s 0
c -t * -i 1 -n Green
c -t * -i 2 -n Purple
n -t * -a 4 -s 4 -S UP -v circle -c black -i black
n -t * -a 0 -s 0 -S UP -v circle -c black -i black
n -t * -a 1 -s 1 -S UP -v circle -c black -i black
n -t * -a 2 -s 2 -S UP -v circle -c black -i black
n -t * -a 3 -s 3 -S UP -v circle -c black -i black
l -t * -s 0 -d 2 -S UP -r 2500000 -D 0.01 -c black -o right-down
l -t * -s 1 -d 2 -S UP -r 2000000 -D 0.01 -c black -o right-up
l -t * -s 2 -d 3 -S UP -r 1500000 -D 0.02 -c black -o right-up
l -t * -s 2 -d 4 -S UP -r 1000000 -D 0.02 -c black -o right-down
+ -t 0.1 -s 0 -d 2 -p tcp -e 40 -c 2 -i 0 -a 2 -x {0.0 3.0 0 ------- null}
- -t 0.1 -s 0 -d 2 -p tcp -e 40 -c 2 -i 0 -a 2 -x {0.0 3.0 0 ------- null}
h -t 0.1 -s 0 -d 2 -p tcp -e 40 -c 2 -i 0 -a 2 -x {0.0 3.0 -1 ------- null}
r -t 0.110128 -s 0 -d 2 -p tcp -e 40 -c 2 -i 0 -a 2 -x {0.0 3.0 0 ------- null}
+ -t 0.110128 -s 2 -d 3 -p tcp -e 40 -c 2 -i 0 -a 2 -x {0.0 3.0 0 ------- null}
- -t 0.110128 -s 2 -d 3 -p tcp -e 40 -c 2 -i 0 -a 2 -x {0.0 3.0 0 ------- null}
h -t 0.110128 -s 2 -d 3 -p tcp -e 40 -c 2 -i 0 -a 2 -x {0.0 3.0 -1 ------- null}
r -t 0.130341333333333 -s 2 -d 3 -p tcp -e 40 -c 2 -i 0 -a 2 -x {0.0 3.0 0 ------- null}
+ -t 0.130341333333333 -s 3 -d 2 -p ack -e 40 -c 2 -i 1 -a 2 -x {3.0 0.0 0 ------- null}
- -t 0.130341333333333 -s 3 -d 2 -p ack -e 40 -c 2 -i 1 -a 2 -x {3.0 0.0 0 ------- null}
h -t 0.130341333333333 -s 3 -d 2 -p ack -e 40 -c 2 -i 1 -a 2 -x {3.0 0.0 -1 ------- null}
r -t 0.150554666666667 -s 3 -d 2 -p ack -e 40 -c 2 -i 1 -a 2 -x {3.0 0.0 0 ------- null}
+ -t 0.150554666666667 -s 2 -d 0 -p ack -e 40 -c 2 -i 1 -a 2 -x {3.0 0.0 0 ------- null}
- -t 0.150554666666667 -s 2 -d 0 -p ack -e 40 -c 2 -i 1 -a 2 -x {3.0 0.0 0 ------- null}
h -t 0.150554666666667 -s 2 -d 0 -p ack -e 40 -c 2 -i 1 -a 2 -x {3.0 0.0 -1 ------- null}
r -t 0.160682666666667 -s 2 -d 0 -p ack -e 40 -c 2 -i 1 -a 2 -x {3.0 0.0 0 ------- null}
+ -t 0.160682666666667 -s 0 -d 2 -p tcp -e 1040 -c 2 -i 2 -a 2 -x {0.0 3.0 1 ------- null}
- -t 0.160682666666667 -s 0 -d 2 -p tcp -e 1040 -c 2 -i 2 -a 2 -x {0.0 3.0 1 ------- null}
h -t 0.160682666666667 -s 0 -d 2 -p tcp -e 1040 -c 2 -i 2 -a 2 -x {0.0 3.0 -1 ------- null}
+ -t 0.160682666666667 -s 0 -d 2 -p tcp -e 1040 -c 2 -i 3 -a 2 -x {0.0 3.0 2 ------- null}
- -t 0.164010666666667 -s 0 -d 2 -p tcp -e 1040 -c 2 -i 3 -a 2 -x {0.0 3.0 2 ------- null}
h -t 0.164010666666667 -s 0 -d 2 -p tcp -e 1040 -c 2 -i 3 -a 2 -x {0.0 3.0 -1 ------- null}
r -t 0.174010666666667 -s 0 -d 2 -p tcp -e 1040 -c 2 -i 2 -a 2 -x {0.0 3.0 1 ------- null}
+ -t 0.174010666666667 -s 2 -d 3 -p tcp -e 1040 -c 2 -i 2 -a 2 -x {0.0 3.0 1 ------- null}
- -t 0.174010666666667 -s 2 -d 3 -p tcp -e 1040 -c 2 -i 2 -a 2 -x {0.0 3.0 1 ------- null}
h -t 0.174010666666667 -s 2 -d 3 -p tcp -e 1040 -c 2 -i 2 -a 2 -x {0.0 3.0 -1 ------- null}
r -t 0.177338666666667 -s 0 -d 2 -p tcp -e 1040 -c 2 -i 3 -a 2 -x {0.0 3.0 2 ------- null}
+ -t 0.177338666666667 -s 2 -d 3 -p tcp -e 1040 -c 2 -i 3 -a 2 -x {0.0 3.0 2 ------- null}
- -t 0.179557333333333 -s 2 -d 3 -p tcp -e 1040 -c 2 -i 3 -a 2 -x {0.0 3.0 2 ------- null}
h -t 0.179557333333333 -s 2 -d 3 -p tcp -e 1040 -c 2 -i 3 -a 2 -x {0.0 3.0 -1 ------- null}
r -t 0.199557333333333 -s 2 -d 3 -p tcp -e 1040 -c 2 -i 2 -a 2 -x {0.0 3.0 1 ------- null}
+ -t 0.199557333333333 -s 3 -d 2 -p ack -e 40 -c 2 -i 4 -a 2 -x {3.0 0.0 1 ------- null}
- -t 0.199557333333333 -s 3 -d 2 -p ack -e 40 -c 2 -i 4 -a 2 -x {3.0 0.0 1 ------- null}
h -t 0.199557333333333 -s 3 -d 2 -p ack -e 40 -c 2 -i 4 -a 2 -x {3.0 0.0 -1 ------- null}
r -t 0.205104 -s 2 -d 3 -p tcp -e 1040 -c 2 -i 3 -a 2 -x {0.0 3.0 2 ------- null}
+ -t 0.205104 -s 3 -d 2 -p ack -e 40 -c 2 -i 5 -a 2 -x {3.0 0.0 2 ------- null}
- -t 0.205104 -s 3 -d 2 -p ack -e 40 -c 2 -i 5 -a 2 -x {3.0 0.0 2 ------- null}
h -t 0.205104 -s 3 -d 2 -p ack -e 40 -c 2 -i 5 -a 2 -x {3.0 0.0 -1 ------- null}
r -t 0.219770666666667 -s 3 -d 2 -p ack -e 40 -c 2 -i 4 -a 2 -x {3.0 0.0 1 ------- null}
+ -t 0.219770666666667 -s 2 -d 0 -p ack -e 40 -c 2 -i 4 -a 2 -x {3.0 0.0 1 ------- null}
- -t 0.219770666666667 -s 2 -d 0 -p ack -e 40 -c 2 -i 4 -a 2 -x {3.0 0.0 1 ------- null}
h -t 0.219770666666667 -s 2 -d 0 -p ack -e 40 -c 2 -i 4 -a 2 -x {3.0 0.0 -1 ------- null}
r -t 0.225317333333333 -s 3 -d 2 -p ack -e 40 -c 2 -i 5 -a 2 -x {3.0 0.0 2 ------- null}
+ -t 0.225317333333333 -s 2 -d 0 -p ack -e 40 -c 2 -i 5 -a 2 -x {3.0 0.0 2 ------- null}
- -t 0.225317333333333 -s 2 -d 0 -p ack -e 40 -c 2 -i 5 -a 2 -x {3.0 0.0 2 ------- null}
h -t 0.225317333333333 -s 2 -d 0 -p ack -e 40 -c 2 -i 5 -a 2 -x {3.0 0.0 -1 ------- null}
r -t 0.229898666666667 -s 2 -d 0 -p ack -e 40 -c 2 -i 4 -a 2 -x {3.0 0.0 1 ------- null}
+ -t 0.229898666666667 -s 0 -d 2 -p tcp -e 1040 -c 2 -i 6 -a 2 -x {0.0 3.0 3 ------- null}
- -t 0.229898666666667 -s 0 -d 2 -p tcp -e 1040 -c 2 -i 6 -a 2 -x {0.0 3.0 3 ------- null}
h -t 0.229898666666667 -s 0 -d 2 -p tcp -e 1040 -c 2 -i 6 -a 2 -x {0.0 3.0 -1 ------- null}
+ -t 0.229898666666667 -s 0 -d 2 -p tcp -e 1040 -c 2 -i 7 -a 2 -x {0.0 3.0 4 ------- null}
- -t 0.233226666666667 -s 0 -d 2 -p tcp -e 1040 -c 2 -i 7 -a 2 -x {0.0 3.0 4 ------- null}
h -t 0.233226666666667 -s 0 -d 2 -p tcp -e 1040 -c 2 -i 7 -a 2 -x {0.0 3.0 -1 ------- null}
r -t 0.235445333333333 -s 2 -d 0 -p ack -e 40 -c 2 -i 5 -a 2 -x {3.0 0.0 2 ------- null}
+ -t 0.235445333333333 -s 0 -d 2 -p tcp -e 1040 -c 2 -i 8 -a 2 -x {0.0 3.0 5 ------- null}
+ -t 0.235445333333333 -s 0 -d 2 -p tcp -e 1040 -c 2 -i 9 -a 2 -x {0.0 3.0 6 ------- null}
- -t 0.236554666666667 -s 0 -d 2 -p tcp -e 1040 -c 2 -i 8 -a 2 -x {0.0 3.0 5 ------- null}
h -t 0.236554666666667 -s 0 -d 2 -p tcp -e 1040 -c 2 -i 8 -a 2 -x {0.0 3.0 -1 ------- null}
- -t 0.239882666666667 -s 0 -d 2 -p tcp -e 1040 -c 2 -i 9 -a 2 -x {0.0 3.0 6 ------- null}
h -t 0.239882666666667 -s 0 -d 2 -p tcp -e 1040 -c 2 -i 9 -a 2 -x {0.0 3.0 -1 ------- null}
r -t 0.243226666666667 -s 0 -d 2 -p tcp -e 1040 -c 2 -i 6 -a 2 -x {0.0 3.0 3 ------- null}
+ -t 0.243226666666667 -s 2 -d 3 -p tcp -e 1040 -c 2 -i 6 -a 2 -x {0.0 3.0 3 ------- null}
- -t 0.243226666666667 -s 2 -d 3 -p tcp -e 1040 -c 2 -i 6 -a 2 -x {0.0 3.0 3 ------- null}
h -t 0.243226666666667 -s 2 -d 3 -p tcp -e 1040 -c 2 -i 6 -a 2 -x {0.0 3.0 -1 ------- null}
r -t 0.246554666666667 -s 0 -d 2 -p tcp -e 1040 -c 2 -i 7 -a 2 -x {0.0 3.0 4 ------- null}
+ -t 0.246554666666667 -s 2 -d 3 -p tcp -e 1040 -c 2 -i 7 -a 2 -x {0.0 3.0 4 ------- null}
- -t 0.248773333333333 -s 2 -d 3 -p tcp -e 1040 -c 2 -i 7 -a 2 -x {0.0 3.0 4 ------- null}
h -t 0.248773333333333 -s 2 -d 3 -p tcp -e 1040 -c 2 -i 7 -a 2 -x {0.0 3.0 -1 ------- null}
r -t 0.249882666666667 -s 0 -d 2 -p tcp -e 1040 -c 2 -i 8 -a 2 -x {0.0 3.0 5 ------- null}
+ -t 0.249882666666667 -s 2 -d 3 -p tcp -e 1040 -c 2 -i 8 -a 2 -x {0.0 3.0 5 ------- null}
r -t 0.253210666666667 -s 0 -d 2 -p tcp -e 1040 -c 2 -i 9 -a 2 -x {0.0 3.0 6 ------- null}
+ -t 0.253210666666667 -s 2 -d 3 -p tcp -e 1040 -c 2 -i 9 -a 2 -x {0.0 3.0 6 ------- null}
- -t 0.25432 -s 2 -d 3 -p tcp -e 1040 -c 2 -i 8 -a 2 -x {0.0 3.0 5 ------- null}
h -t 0.25432 -s 2 -d 3 -p tcp -e 1040 -c 2 -i 8 -a 2 -x {0.0 3.0 -1 ------- null}
- -t 0.259866666666667 -s 2 -d 3 -p tcp -e 1040 -c 2 -i 9 -a 2 -x {0.0 3.0 6 ------- null}
h -t 0.259866666666667 -s 2 -d 3 -p tcp -e 1040 -c 2 -i 9 -a 2 -x {0.0 3.0 -1 ------- null}
r -t 0.268773333333333 -s 2 -d 3 -p tcp -e 1040 -c 2 -i 6 -a 2 -x {0.0 3.0 3 ------- null}
+ -t 0.268773333333333 -s 3 -d 2 -p ack -e 40 -c 2 -i 10 -a 2 -x {3.0 0.0 3 ------- null}
- -t 0.268773333333333 -s 3 -d 2 -p ack -e 40 -c 2 -i 10 -a 2 -x {3.0 0.0 3 ------- null}
h -t 0.268773333333333 -s 3 -d 2 -p ack -e 40 -c 2 -i 10 -a 2 -x {3.0 0.0 -1 ------- null}
r -t 0.27432 -s 2 -d 3 -p tcp -e 1040 -c 2 -i 7 -a 2 -x {0.0 3.0 4 ------- null}
+ -t 0.27432 -s 3 -d 2 -p ack -e 40 -c 2 -i 11 -a 2 -x {3.0 0.0 4 ------- null}
- -t 0.27432 -s 3 -d 2 -p ack -e 40 -c 2 -i 11 -a 2 -x {3.0 0.0 4 ------- null}
h -t 0.27432 -s 3 -d 2 -p ack -e 40 -c 2 -i 11 -a 2 -x {3.0 0.0 -1 ------- null}
r -t 0.279866666666667 -s 2 -d 3 -p tcp -e 1040 -c 2 -i 8 -a 2 -x {0.0 3.0 5 ------- null}
+ -t 0.279866666666667 -s 3 -d 2 -p ack -e 40 -c 2 -i 12 -a 2 -x {3.0 0.0 5 ------- null}
- -t 0.279866666666667 -s 3 -d 2 -p ack -e 40 -c 2 -i 12 -a 2 -x {3.0 0.0 5 ------- null}
h -t 0.279866666666667 -s 3 -d 2 -p ack -e 40 -c 2 -i 12 -a 2 -x {3.0 0.0 -1 ------- null}
r -t 0.285413333333333 -s 2 -d 3 -p tcp -e 1040 -c 2 -i 9 -a 2 -x {0.0 3.0 6 ------- null}
+ -t 0.285413333333333 -s 3 -d 2 -p ack -e 40 -c 2 -i 13 -a 2 -x {3.0 0.0 6 ------- null}
- -t 0.285413333333333 -s 3 -d 2 -p ack -e 40 -c 2 -i 13 -a 2 -x {3.0 0.0 6 ------- null}
h -t 0.285413333333333 -s 3 -d 2 -p ack -e 40 -c 2 -i 13 -a 2 -x {3.0 0.0 -1 ------- null}
r -t 0.288986666666667 -s 3 -d 2 -p ack -e 40 -c 2 -i 10 -a 2 -x {3.0 0.0 3 ------- null}
+ -t 0.288986666666667 -s 2 -d 0 -p ack -e 40 -c 2 -i 10 -a 2 -x {3.0 0.0 3 ------- null}
- -t 0.288986666666667 -s 2 -d 0 -p ack -e 40 -c 2 -i 10 -a 2 -x {3.0 0.0 3 ------- null}
h -t 0.288986666666667 -s 2 -d 0 -p ack -e 40 -c 2 -i 10 -a 2 -x {3.0 0.0 -1 ------- null}
r -t 0.294533333333333 -s 3 -d 2 -p ack -e 40 -c 2 -i 11 -a 2 -x {3.0 0.0 4 ------- null}
+ -t 0.294533333333333 -s 2 -d 0 -p ack -e 40 -c 2 -i 11 -a 2 -x {3.0 0.0 4 ------- null}
- -t 0.294533333333333 -s 2 -d 0 -p ack -e 40 -c 2 -i 11 -a 2 -x {3.0 0.0 4 ------- null}
h -t 0.294533333333333 -s 2 -d 0 -p ack -e 40 -c 2 -i 11 -a 2 -x {3.0 0.0 -1 ------- null}
r -t 0.299114666666667 -s 2 -d 0 -p ack -e 40 -c 2 -i 10 -a 2 -x {3.0 0.0 3 ------- null}
+ -t 0.299114666666667 -s 0 -d 2 -p tcp -e 1040 -c 2 -i 14 -a 2 -x {0.0 3.0 7 ------- null}
- -t 0.299114666666667 -s 0 -d 2 -p tcp -e 1040 -c 2 -i 14 -a 2 -x {0.0 3.0 7 ------- null}
h -t 0.299114666666667 -s 0 -d 2 -p tcp -e 1040 -c 2 -i 14 -a 2 -x {0.0 3.0 -1 ------- null}
+ -t 0.299114666666667 -s 0 -d 2 -p tcp -e 1040 -c 2 -i 15 -a 2 -x {0.0 3.0 8 ------- null}
r -t 0.30008 -s 3 -d 2 -p ack -e 40 -c 2 -i 12 -a 2 -x {3.0 0.0 5 ------- null}
+ -t 0.30008 -s 2 -d 0 -p ack -e 40 -c 2 -i 12 -a 2 -x {3.0 0.0 5 ------- null}
- -t 0.30008 -s 2 -d 0 -p ack -e 40 -c 2 -i 12 -a 2 -x {3.0 0.0 5 ------- null}
h -t 0.30008 -s 2 -d 0 -p ack -e 40 -c 2 -i 12 -a 2 -x {3.0 0.0 -1 ------- null}
- -t 0.302442666666667 -s 0 -d 2 -p tcp -e 1040 -c 2 -i 15 -a 2 -x {0.0 3.0 8 ------- null}
h -t 0.302442666666667 -s 0 -d 2 -p tcp -e 1040 -c 2 -i 15 -a 2 -x {0.0 3.0 -1 ------- null}
r -t 0.304661333333333 -s 2 -d 0 -p ack -e 40 -c 2 -i 11 -a 2 -x {3.0 0.0 4 ------- null}
+ -t 0.304661333333333 -s 0 -d 2 -p tcp -e 1040 -c 2 -i 16 -a 2 -x {0.0 3.0 9 ------- null}
+ -t 0.304661333333333 -s 0 -d 2 -p tcp -e 1040 -c 2 -i 17 -a 2 -x {0.0 3.0 10 ------- null}
r -t 0.305626666666667 -s 3 -d 2 -p ack -e 40 -c 2 -i 13 -a 2 -x {3.0 0.0 6 ------- null}
+ -t 0.305626666666667 -s 2 -d 0 -p ack -e 40 -c 2 -i 13 -a 2 -x {3.0 0.0 6 ------- null}
- -t 0.305626666666667 -s 2 -d 0 -p ack -e 40 -c 2 -i 13 -a 2 -x {3.0 0.0 6 ------- null}
h -t 0.305626666666667 -s 2 -d 0 -p ack -e 40 -c 2 -i 13 -a 2 -x {3.0 0.0 -1 ------- null}
- -t 0.305770666666667 -s 0 -d 2 -p tcp -e 1040 -c 2 -i 16 -a 2 -x {0.0 3.0 9 ------- null}
h -t 0.305770666666667 -s 0 -d 2 -p tcp -e 1040 -c 2 -i 16 -a 2 -x {0.0 3.0 -1 ------- null}
- -t 0.309098666666667 -s 0 -d 2 -p tcp -e 1040 -c 2 -i 17 -a 2 -x {0.0 3.0 10 ------- null}
h -t 0.309098666666667 -s 0 -d 2 -p tcp -e 1040 -c 2 -i 17 -a 2 -x {0.0 3.0 -1 ------- null}
r -t 0.310208 -s 2 -d 0 -p ack -e 40 -c 2 -i 12 -a 2 -x {3.0 0.0 5 ------- null}
+ -t 0.310208 -s 0 -d 2 -p tcp -e 1040 -c 2 -i 18 -a 2 -x {0.0 3.0 11 ------- null}
+ -t 0.310208 -s 0 -d 2 -p tcp -e 1040 -c 2 -i 19 -a 2 -x {0.0 3.0 12 ------- null}
- -t 0.312426666666667 -s 0 -d 2 -p tcp -e 1040 -c 2 -i 18 -a 2 -x {0.0 3.0 11 ------- null}
h -t 0.312426666666667 -s 0 -d 2 -p tcp -e 1040 -c 2 -i 18 -a 2 -x {0.0 3.0 -1 ------- null}
r -t 0.312442666666667 -s 0 -d 2 -p tcp -e 1040 -c 2 -i 14 -a 2 -x {0.0 3.0 7 ------- null}
+ -t 0.312442666666667 -s 2 -d 3 -p tcp -e 1040 -c 2 -i 14 -a 2 -x {0.0 3.0 7 ------- null}
- -t 0.312442666666667 -s 2 -d 3 -p tcp -e 1040 -c 2 -i 14 -a 2 -x {0.0 3.0 7 ------- null}
h -t 0.312442666666667 -s 2 -d 3 -p tcp -e 1040 -c 2 -i 14 -a 2 -x {0.0 3.0 -1 ------- null}
r -t 0.315754666666667 -s 2 -d 0 -p ack -e 40 -c 2 -i 13 -a 2 -x {3.0 0.0 6 ------- null}
+ -t 0.315754666666667 -s 0 -d 2 -p tcp -e 1040 -c 2 -i 20 -a 2 -x {0.0 3.0 13 ------- null}
+ -t 0.315754666666667 -s 0 -d 2 -p tcp -e 1040 -c 2 -i 21 -a 2 -x {0.0 3.0 14 ------- null}
- -t 0.315754666666667 -s 0 -d 2 -p tcp -e 1040 -c 2 -i 19 -a 2 -x {0.0 3.0 12 ------- null}
h -t 0.315754666666667 -s 0 -d 2 -p tcp -e 1040 -c 2 -i 19 -a 2 -x {0.0 3.0 -1 ------- null}
r -t 0.315770666666667 -s 0 -d 2 -p tcp -e 1040 -c 2 -i 15 -a 2 -x {0.0 3.0 8 ------- null}
+ -t 0.315770666666667 -s 2 -d 3 -p tcp -e 1040 -c 2 -i 15 -a 2 -x {0.0 3.0 8 ------- null}
- -t 0.317989333333333 -s 2 -d 3 -p tcp -e 1040 -c 2 -i 15 -a 2 -x {0.0 3.0 8 ------- null}
h -t 0.317989333333333 -s 2 -d 3 -p tcp -e 1040 -c 2 -i 15 -a 2 -x {0.0 3.0 -1 ------- null}
- -t 0.319082666666667 -s 0 -d 2 -p tcp -e 1040 -c 2 -i 20 -a 2 -x {0.0 3.0 13 ------- null}
h -t 0.319082666666667 -s 0 -d 2 -p tcp -e 1040 -c 2 -i 20 -a 2 -x {0.0 3.0 -1 ------- null}
r -t 0.319098666666667 -s 0 -d 2 -p tcp -e 1040 -c 2 -i 16 -a 2 -x {0.0 3.0 9 ------- null}
+ -t 0.319098666666667 -s 2 -d 3 -p tcp -e 1040 -c 2 -i 16 -a 2 -x {0.0 3.0 9 ------- null}
- -t 0.322410666666667 -s 0 -d 2 -p tcp -e 1040 -c 2 -i 21 -a 2 -x {0.0 3.0 14 ------- null}
h -t 0.322410666666667 -s 0 -d 2 -p tcp -e 1040 -c 2 -i 21 -a 2 -x {0.0 3.0 -1 ------- null}
r -t 0.322426666666667 -s 0 -d 2 -p tcp -e 1040 -c 2 -i 17 -a 2 -x {0.0 3.0 10 ------- null}
+ -t 0.322426666666667 -s 2 -d 3 -p tcp -e 1040 -c 2 -i 17 -a 2 -x {0.0 3.0 10 ------- null}
- -t 0.323536 -s 2 -d 3 -p tcp -e 1040 -c 2 -i 16 -a 2 -x {0.0 3.0 9 ------- null}
h -t 0.323536 -s 2 -d 3 -p tcp -e 1040 -c 2 -i 16 -a 2 -x {0.0 3.0 -1 ------- null}
r -t 0.325754666666667 -s 0 -d 2 -p tcp -e 1040 -c 2 -i 18 -a 2 -x {0.0 3.0 11 ------- null}
+ -t 0.325754666666667 -s 2 -d 3 -p tcp -e 1040 -c 2 -i 18 -a 2 -x {0.0 3.0 11 ------- null}
- -t 0.329082666666667 -s 2 -d 3 -p tcp -e 1040 -c 2 -i 17 -a 2 -x {0.0 3.0 10 ------- null}
h -t 0.329082666666667 -s 2 -d 3 -p tcp -e 1040 -c 2 -i 17 -a 2 -x {0.0 3.0 -1 ------- null}
r -t 0.329082666666667 -s 0 -d 2 -p tcp -e 1040 -c 2 -i 19 -a 2 -x {0.0 3.0 12 ------- null}
+ -t 0.329082666666667 -s 2 -d 3 -p tcp -e 1040 -c 2 -i 19 -a 2 -x {0.0 3.0 12 ------- null}
r -t 0.332410666666667 -s 0 -d 2 -p tcp -e 1040 -c 2 -i 20 -a 2 -x {0.0 3.0 13 ------- null}
+ -t 0.332410666666667 -s 2 -d 3 -p tcp -e 1040 -c 2 -i 20 -a 2 -x {0.0 3.0 13 ------- null}
- -t 0.334629333333333 -s 2 -d 3 -p tcp -e 1040 -c 2 -i 18 -a 2 -x {0.0 3.0 11 ------- null}
h -t 0.334629333333333 -s 2 -d 3 -p tcp -e 1040 -c 2 -i 18 -a 2 -x {0.0 3.0 -1 ------- null}
r -t 0.335738666666667 -s 0 -d 2 -p tcp -e 1040 -c 2 -i 21 -a 2 -x {0.0 3.0 14 ------- null}
+ -t 0.335738666666667 -s 2 -d 3 -p tcp -e 1040 -c 2 -i 21 -a 2 -x {0.0 3.0 14 ------- null}
r -t 0.337989333333333 -s 2 -d 3 -p tcp -e 1040 -c 2 -i 14 -a 2 -x {0.0 3.0 7 ------- null}
+ -t 0.337989333333333 -s 3 -d 2 -p ack -e 40 -c 2 -i 22 -a 2 -x {3.0 0.0 7 ------- null}
- -t 0.337989333333333 -s 3 -d 2 -p ack -e 40 -c 2 -i 22 -a 2 -x {3.0 0.0 7 ------- null}
h -t 0.337989333333333 -s 3 -d 2 -p ack -e 40 -c 2 -i 22 -a 2 -x {3.0 0.0 -1 ------- null}
- -t 0.340176 -s 2 -d 3 -p tcp -e 1040 -c 2 -i 19 -a 2 -x {0.0 3.0 12 ------- null}
h -t 0.340176 -s 2 -d 3 -p tcp -e 1040 -c 2 -i 19 -a 2 -x {0.0 3.0 -1 ------- null}
r -t 0.343536 -s 2 -d 3 -p tcp -e 1040 -c 2 -i 15 -a 2 -x {0.0 3.0 8 ------- null}
+ -t 0.343536 -s 3 -d 2 -p ack -e 40 -c 2 -i 23 -a 2 -x {3.0 0.0 8 ------- null}
- -t 0.343536 -s 3 -d 2 -p ack -e 40 -c 2 -i 23 -a 2 -x {3.0 0.0 8 ------- null}
h -t 0.343536 -s 3 -d 2 -p ack -e 40 -c 2 -i 23 -a 2 -x {3.0 0.0 -1 ------- null}
- -t 0.345722666666667 -s 2 -d 3 -p tcp -e 1040 -c 2 -i 20 -a 2 -x {0.0 3.0 13 ------- null}
h -t 0.345722666666667 -s 2 -d 3 -p tcp -e 1040 -c 2 -i 20 -a 2 -x {0.0 3.0 -1 ------- null}
r -t 0.349082666666667 -s 2 -d 3 -p tcp -e 1040 -c 2 -i 16 -a 2 -x {0.0 3.0 9 ------- null}
+ -t 0.349082666666667 -s 3 -d 2 -p ack -e 40 -c 2 -i 24 -a 2 -x {3.0 0.0 9 ------- null}
- -t 0.349082666666667 -s 3 -d 2 -p ack -e 40 -c 2 -i 24 -a 2 -x {3.0 0.0 9 ------- null}
h -t 0.349082666666667 -s 3 -d 2 -p ack -e 40 -c 2 -i 24 -a 2 -x {3.0 0.0 -1 ------- null}
- -t 0.351269333333333 -s 2 -d 3 -p tcp -e 1040 -c 2 -i 21 -a 2 -x {0.0 3.0 14 ------- null}
h -t 0.351269333333333 -s 2 -d 3 -p tcp -e 1040 -c 2 -i 21 -a 2 -x {0.0 3.0 -1 ------- null}
r -t 0.354629333333333 -s 2 -d 3 -p tcp -e 1040 -c 2 -i 17 -a 2 -x {0.0 3.0 10 ------- null}
+ -t 0.354629333333333 -s 3 -d 2 -p ack -e 40 -c 2 -i 25 -a 2 -x {3.0 0.0 10 ------- null}
- -t 0.354629333333333 -s 3 -d 2 -p ack -e 40 -c 2 -i 25 -a 2 -x {3.0 0.0 10 ------- null}
h -t 0.354629333333333 -s 3 -d 2 -p ack -e 40 -c 2 -i 25 -a 2 -x {3.0 0.0 -1 ------- null}
r -t 0.358202666666667 -s 3 -d 2 -p ack -e 40 -c 2 -i 22 -a 2 -x {3.0 0.0 7 ------- null}
+ -t 0.358202666666667 -s 2 -d 0 -p ack -e 40 -c 2 -i 22 -a 2 -x {3.0 0.0 7 ------- null}
- -t 0.358202666666667 -s 2 -d 0 -p ack -e 40 -c 2 -i 22 -a 2 -x {3.0 0.0 7 ------- null}
h -t 0.358202666666667 -s 2 -d 0 -p ack -e 40 -c 2 -i 22 -a 2 -x {3.0 0.0 -1 ------- null}
r -t 0.360176 -s 2 -d 3 -p tcp -e 1040 -c 2 -i 18 -a 2 -x {0.0 3.0 11 ------- null}
+ -t 0.360176 -s 3 -d 2 -p ack -e 40 -c 2 -i 26 -a 2 -x {3.0 0.0 11 ------- null}
- -t 0.360176 -s 3 -d 2 -p ack -e 40 -c 2 -i 26 -a 2 -x {3.0 0.0 11 ------- null}
h -t 0.360176 -s 3 -d 2 -p ack -e 40 -c 2 -i 26 -a 2 -x {3.0 0.0 -1 ------- null}
r -t 0.363749333333333 -s 3 -d 2 -p ack -e 40 -c 2 -i 23 -a 2 -x {3.0 0.0 8 ------- null}
+ -t 0.363749333333333 -s 2 -d 0 -p ack -e 40 -c 2 -i 23 -a 2 -x {3.0 0.0 8 ------- null}
- -t 0.363749333333333 -s 2 -d 0 -p ack -e 40 -c 2 -i 23 -a 2 -x {3.0 0.0 8 ------- null}
h -t 0.363749333333333 -s 2 -d 0 -p ack -e 40 -c 2 -i 23 -a 2 -x {3.0 0.0 -1 ------- null}
r -t 0.365722666666667 -s 2 -d 3 -p tcp -e 1040 -c 2 -i 19 -a 2 -x {0.0 3.0 12 ------- null}
+ -t 0.365722666666667 -s 3 -d 2 -p ack -e 40 -c 2 -i 27 -a 2 -x {3.0 0.0 12 ------- null}
- -t 0.365722666666667 -s 3 -d 2 -p ack -e 40 -c 2 -i 27 -a 2 -x {3.0 0.0 12 ------- null}
h -t 0.365722666666667 -s 3 -d 2 -p ack -e 40 -c 2 -i 27 -a 2 -x {3.0 0.0 -1 ------- null}
r -t 0.368330666666667 -s 2 -d 0 -p ack -e 40 -c 2 -i 22 -a 2 -x {3.0 0.0 7 ------- null}
+ -t 0.368330666666667 -s 0 -d 2 -p tcp -e 1040 -c 2 -i 28 -a 2 -x {0.0 3.0 15 ------- null}
- -t 0.368330666666667 -s 0 -d 2 -p tcp -e 1040 -c 2 -i 28 -a 2 -x {0.0 3.0 15 ------- null}
h -t 0.368330666666667 -s 0 -d 2 -p tcp -e 1040 -c 2 -i 28 -a 2 -x {0.0 3.0 -1 ------- null}
+ -t 0.368330666666667 -s 0 -d 2 -p tcp -e 1040 -c 2 -i 29 -a 2 -x {0.0 3.0 16 ------- null}
r -t 0.369296 -s 3 -d 2 -p ack -e 40 -c 2 -i 24 -a 2 -x {3.0 0.0 9 ------- null}
+ -t 0.369296 -s 2 -d 0 -p ack -e 40 -c 2 -i 24 -a 2 -x {3.0 0.0 9 ------- null}
- -t 0.369296 -s 2 -d 0 -p ack -e 40 -c 2 -i 24 -a 2 -x {3.0 0.0 9 ------- null}
h -t 0.369296 -s 2 -d 0 -p ack -e 40 -c 2 -i 24 -a 2 -x {3.0 0.0 -1 ------- null}
r -t 0.371269333333333 -s 2 -d 3 -p tcp -e 1040 -c 2 -i 20 -a 2 -x {0.0 3.0 13 ------- null}
+ -t 0.371269333333333 -s 3 -d 2 -p ack -e 40 -c 2 -i 30 -a 2 -x {3.0 0.0 13 ------- null}
- -t 0.371269333333333 -s 3 -d 2 -p ack -e 40 -c 2 -i 30 -a 2 -x {3.0 0.0 13 ------- null}
h -t 0.371269333333333 -s 3 -d 2 -p ack -e 40 -c 2 -i 30 -a 2 -x {3.0 0.0 -1 ------- null}
- -t 0.371658666666667 -s 0 -d 2 -p tcp -e 1040 -c 2 -i 29 -a 2 -x {0.0 3.0 16 ------- null}
h -t 0.371658666666667 -s 0 -d 2 -p tcp -e 1040 -c 2 -i 29 -a 2 -x {0.0 3.0 -1 ------- null}
r -t 0.373877333333333 -s 2 -d 0 -p ack -e 40 -c 2 -i 23 -a 2 -x {3.0 0.0 8 ------- null}
+ -t 0.373877333333333 -s 0 -d 2 -p tcp -e 1040 -c 2 -i 31 -a 2 -x {0.0 3.0 17 ------- null}
+ -t 0.373877333333333 -s 0 -d 2 -p tcp -e 1040 -c 2 -i 32 -a 2 -x {0.0 3.0 18 ------- null}
r -t 0.374842666666667 -s 3 -d 2 -p ack -e 40 -c 2 -i 25 -a 2 -x {3.0 0.0 10 ------- null}
+ -t 0.374842666666667 -s 2 -d 0 -p ack -e 40 -c 2 -i 25 -a 2 -x {3.0 0.0 10 ------- null}
- -t 0.374842666666667 -s 2 -d 0 -p ack -e 40 -c 2 -i 25 -a 2 -x {3.0 0.0 10 ------- null}
h -t 0.374842666666667 -s 2 -d 0 -p ack -e 40 -c 2 -i 25 -a 2 -x {3.0 0.0 -1 ------- null}
- -t 0.374986666666667 -s 0 -d 2 -p tcp -e 1040 -c 2 -i 31 -a 2 -x {0.0 3.0 17 ------- null}
h -t 0.374986666666667 -s 0 -d 2 -p tcp -e 1040 -c 2 -i 31 -a 2 -x {0.0 3.0 -1 ------- null}
r -t 0.376816 -s 2 -d 3 -p tcp -e 1040 -c 2 -i 21 -a 2 -x {0.0 3.0 14 ------- null}
+ -t 0.376816 -s 3 -d 2 -p ack -e 40 -c 2 -i 33 -a 2 -x {3.0 0.0 14 ------- null}
- -t 0.376816 -s 3 -d 2 -p ack -e 40 -c 2 -i 33 -a 2 -x {3.0 0.0 14 ------- null}
h -t 0.376816 -s 3 -d 2 -p ack -e 40 -c 2 -i 33 -a 2 -x {3.0 0.0 -1 ------- null}
- -t 0.378314666666667 -s 0 -d 2 -p tcp -e 1040 -c 2 -i 32 -a 2 -x {0.0 3.0 18 ------- null}
h -t 0.378314666666667 -s 0 -d 2 -p tcp -e 1040 -c 2 -i 32 -a 2 -x {0.0 3.0 -1 ------- null}
r -t 0.379424 -s 2 -d 0 -p ack -e 40 -c 2 -i 24 -a 2 -x {3.0 0.0 9 ------- null}
+ -t 0.379424 -s 0 -d 2 -p tcp -e 1040 -c 2 -i 34 -a 2 -x {0.0 3.0 19 ------- null}
+ -t 0.379424 -s 0 -d 2 -p tcp -e 1040 -c 2 -i 35 -a 2 -x {0.0 3.0 20 ------- null}
r -t 0.380389333333333 -s 3 -d 2 -p ack -e 40 -c 2 -i 26 -a 2 -x {3.0 0.0 11 ------- null}
+ -t 0.380389333333333 -s 2 -d 0 -p ack -e 40 -c 2 -i 26 -a 2 -x {3.0 0.0 11 ------- null}
- -t 0.380389333333333 -s 2 -d 0 -p ack -e 40 -c 2 -i 26 -a 2 -x {3.0 0.0 11 ------- null}
h -t 0.380389333333333 -s 2 -d 0 -p ack -e 40 -c 2 -i 26 -a 2 -x {3.0 0.0 -1 ------- null}
- -t 0.381642666666667 -s 0 -d 2 -p tcp -e 1040 -c 2 -i 34 -a 2 -x {0.0 3.0 19 ------- null}
h -t 0.381642666666667 -s 0 -d 2 -p tcp -e 1040 -c 2 -i 34 -a 2 -x {0.0 3.0 -1 ------- null}
r -t 0.381658666666667 -s 0 -d 2 -p tcp -e 1040 -c 2 -i 28 -a 2 -x {0.0 3.0 15 ------- null}
+ -t 0.381658666666667 -s 2 -d 3 -p tcp -e 1040 -c 2 -i 28 -a 2 -x {0.0 3.0 15 ------- null}
- -t 0.381658666666667 -s 2 -d 3 -p tcp -e 1040 -c 2 -i 28 -a 2 -x {0.0 3.0 15 ------- null}
h -t 0.381658666666667 -s 2 -d 3 -p tcp -e 1040 -c 2 -i 28 -a 2 -x {0.0 3.0 -1 ------- null}
r -t 0.384970666666667 -s 2 -d 0 -p ack -e 40 -c 2 -i 25 -a 2 -x {3.0 0.0 10 ------- null}
+ -t 0.384970666666667 -s 0 -d 2 -p tcp -e 1040 -c 2 -i 36 -a 2 -x {0.0 3.0 21 ------- null}
+ -t 0.384970666666667 -s 0 -d 2 -p tcp -e 1040 -c 2 -i 37 -a 2 -x {0.0 3.0 22 ------- null}
- -t 0.384970666666667 -s 0 -d 2 -p tcp -e 1040 -c 2 -i 35 -a 2 -x {0.0 3.0 20 ------- null}
h -t 0.384970666666667 -s 0 -d 2 -p tcp -e 1040 -c 2 -i 35 -a 2 -x {0.0 3.0 -1 ------- null}
r -t 0.384986666666667 -s 0 -d 2 -p tcp -e 1040 -c 2 -i 29 -a 2 -x {0.0 3.0 16 ------- null}
+ -t 0.384986666666667 -s 2 -d 3 -p tcp -e 1040 -c 2 -i 29 -a 2 -x {0.0 3.0 16 ------- null}
r -t 0.385936 -s 3 -d 2 -p ack -e 40 -c 2 -i 27 -a 2 -x {3.0 0.0 12 ------- null}
+ -t 0.385936 -s 2 -d 0 -p ack -e 40 -c 2 -i 27 -a 2 -x {3.0 0.0 12 ------- null}
- -t 0.385936 -s 2 -d 0 -p ack -e 40 -c 2 -i 27 -a 2 -x {3.0 0.0 12 ------- null}
h -t 0.385936 -s 2 -d 0 -p ack -e 40 -c 2 -i 27 -a 2 -x {3.0 0.0 -1 ------- null}
- -t 0.387205333333333 -s 2 -d 3 -p tcp -e 1040 -c 2 -i 29 -a 2 -x {0.0 3.0 16 ------- null}
h -t 0.387205333333333 -s 2 -d 3 -p tcp -e 1040 -c 2 -i 29 -a 2 -x {0.0 3.0 -1 ------- null}
- -t 0.388298666666667 -s 0 -d 2 -p tcp -e 1040 -c 2 -i 36 -a 2 -x {0.0 3.0 21 ------- null}
h -t 0.388298666666667 -s 0 -d 2 -p tcp -e 1040 -c 2 -i 36 -a 2 -x {0.0 3.0 -1 ------- null}
r -t 0.388314666666667 -s 0 -d 2 -p tcp -e 1040 -c 2 -i 31 -a 2 -x {0.0 3.0 17 ------- null}
+ -t 0.388314666666667 -s 2 -d 3 -p tcp -e 1040 -c 2 -i 31 -a 2 -x {0.0 3.0 17 ------- null}
r -t 0.390517333333333 -s 2 -d 0 -p ack -e 40 -c 2 -i 26 -a 2 -x {3.0 0.0 11 ------- null}
+ -t 0.390517333333333 -s 0 -d 2 -p tcp -e 1040 -c 2 -i 38 -a 2 -x {0.0 3.0 23 ------- null}
+ -t 0.390517333333333 -s 0 -d 2 -p tcp -e 1040 -c 2 -i 39 -a 2 -x {0.0 3.0 24 ------- null}
r -t 0.391482666666667 -s 3 -d 2 -p ack -e 40 -c 2 -i 30 -a 2 -x {3.0 0.0 13 ------- null}
+ -t 0.391482666666667 -s 2 -d 0 -p ack -e 40 -c 2 -i 30 -a 2 -x {3.0 0.0 13 ------- null}
- -t 0.391482666666667 -s 2 -d 0 -p ack -e 40 -c 2 -i 30 -a 2 -x {3.0 0.0 13 ------- null}
h -t 0.391482666666667 -s 2 -d 0 -p ack -e 40 -c 2 -i 30 -a 2 -x {3.0 0.0 -1 ------- null}
- -t 0.391626666666667 -s 0 -d 2 -p tcp -e 1040 -c 2 -i 37 -a 2 -x {0.0 3.0 22 ------- null}
h -t 0.391626666666667 -s 0 -d 2 -p tcp -e 1040 -c 2 -i 37 -a 2 -x {0.0 3.0 -1 ------- null}
r -t 0.391642666666667 -s 0 -d 2 -p tcp -e 1040 -c 2 -i 32 -a 2 -x {0.0 3.0 18 ------- null}
+ -t 0.391642666666667 -s 2 -d 3 -p tcp -e 1040 -c 2 -i 32 -a 2 -x {0.0 3.0 18 ------- null}
- -t 0.392752 -s 2 -d 3 -p tcp -e 1040 -c 2 -i 31 -a 2 -x {0.0 3.0 17 ------- null}
h -t 0.392752 -s 2 -d 3 -p tcp -e 1040 -c 2 -i 31 -a 2 -x {0.0 3.0 -1 ------- null}
- -t 0.394954666666667 -s 0 -d 2 -p tcp -e 1040 -c 2 -i 38 -a 2 -x {0.0 3.0 23 ------- null}
h -t 0.394954666666667 -s 0 -d 2 -p tcp -e 1040 -c 2 -i 38 -a 2 -x {0.0 3.0 -1 ------- null}
r -t 0.394970666666667 -s 0 -d 2 -p tcp -e 1040 -c 2 -i 34 -a 2 -x {0.0 3.0 19 ------- null}
+ -t 0.394970666666667 -s 2 -d 3 -p tcp -e 1040 -c 2 -i 34 -a 2 -x {0.0 3.0 19 ------- null}
r -t 0.396064 -s 2 -d 0 -p ack -e 40 -c 2 -i 27 -a 2 -x {3.0 0.0 12 ------- null}
+ -t 0.396064 -s 0 -d 2 -p tcp -e 1040 -c 2 -i 40 -a 2 -x {0.0 3.0 25 ------- null}
+ -t 0.396064 -s 0 -d 2 -p tcp -e 1040 -c 2 -i 41 -a 2 -x {0.0 3.0 26 ------- null}
r -t 0.397029333333333 -s 3 -d 2 -p ack -e 40 -c 2 -i 33 -a 2 -x {3.0 0.0 14 ------- null}
+ -t 0.397029333333333 -s 2 -d 0 -p ack -e 40 -c 2 -i 33 -a 2 -x {3.0 0.0 14 ------- null}
- -t 0.397029333333333 -s 2 -d 0 -p ack -e 40 -c 2 -i 33 -a 2 -x {3.0 0.0 14 ------- null}
h -t 0.397029333333333 -s 2 -d 0 -p ack -e 40 -c 2 -i 33 -a 2 -x {3.0 0.0 -1 ------- null}
- -t 0.398282666666667 -s 0 -d 2 -p tcp -e 1040 -c 2 -i 39 -a 2 -x {0.0 3.0 24 ------- null}
h -t 0.398282666666667 -s 0 -d 2 -p tcp -e 1040 -c 2 -i 39 -a 2 -x {0.0 3.0 -1 ------- null}
- -t 0.398298666666667 -s 2 -d 3 -p tcp -e 1040 -c 2 -i 32 -a 2 -x {0.0 3.0 18 ------- null}
h -t 0.398298666666667 -s 2 -d 3 -p tcp -e 1040 -c 2 -i 32 -a 2 -x {0.0 3.0 -1 ------- null}
r -t 0.398298666666667 -s 0 -d 2 -p tcp -e 1040 -c 2 -i 35 -a 2 -x {0.0 3.0 20 ------- null}
+ -t 0.398298666666667 -s 2 -d 3 -p tcp -e 1040 -c 2 -i 35 -a 2 -x {0.0 3.0 20 ------- null}
r -t 0.401610666666667 -s 2 -d 0 -p ack -e 40 -c 2 -i 30 -a 2 -x {3.0 0.0 13 ------- null}
+ -t 0.401610666666667 -s 0 -d 2 -p tcp -e 1040 -c 2 -i 42 -a 2 -x {0.0 3.0 27 ------- null}
+ -t 0.401610666666667 -s 0 -d 2 -p tcp -e 1040 -c 2 -i 43 -a 2 -x {0.0 3.0 28 ------- null}
- -t 0.401610666666667 -s 0 -d 2 -p tcp -e 1040 -c 2 -i 40 -a 2 -x {0.0 3.0 25 ------- null}
h -t 0.401610666666667 -s 0 -d 2 -p tcp -e 1040 -c 2 -i 40 -a 2 -x {0.0 3.0 -1 ------- null}
r -t 0.401626666666667 -s 0 -d 2 -p tcp -e 1040 -c 2 -i 36 -a 2 -x {0.0 3.0 21 ------- null}
+ -t 0.401626666666667 -s 2 -d 3 -p tcp -e 1040 -c 2 -i 36 -a 2 -x {0.0 3.0 21 ------- null}
- -t 0.403845333333333 -s 2 -d 3 -p tcp -e 1040 -c 2 -i 34 -a 2 -x {0.0 3.0 19 ------- null}
h -t 0.403845333333333 -s 2 -d 3 -p tcp -e 1040 -c 2 -i 34 -a 2 -x {0.0 3.0 -1 ------- null}
- -t 0.404938666666667 -s 0 -d 2 -p tcp -e 1040 -c 2 -i 41 -a 2 -x {0.0 3.0 26 ------- null}
h -t 0.404938666666667 -s 0 -d 2 -p tcp -e 1040 -c 2 -i 41 -a 2 -x {0.0 3.0 -1 ------- null}
r -t 0.404954666666667 -s 0 -d 2 -p tcp -e 1040 -c 2 -i 37 -a 2 -x {0.0 3.0 22 ------- null}
+ -t 0.404954666666667 -s 2 -d 3 -p tcp -e 1040 -c 2 -i 37 -a 2 -x {0.0 3.0 22 ------- null}
r -t 0.407157333333333 -s 2 -d 0 -p ack -e 40 -c 2 -i 33 -a 2 -x {3.0 0.0 14 ------- null}
+ -t 0.407157333333333 -s 0 -d 2 -p tcp -e 1040 -c 2 -i 44 -a 2 -x {0.0 3.0 29 ------- null}
+ -t 0.407157333333333 -s 0 -d 2 -p tcp -e 1040 -c 2 -i 45 -a 2 -x {0.0 3.0 30 ------- null}
r -t 0.407205333333333 -s 2 -d 3 -p tcp -e 1040 -c 2 -i 28 -a 2 -x {0.0 3.0 15 ------- null}
+ -t 0.407205333333333 -s 3 -d 2 -p ack -e 40 -c 2 -i 46 -a 2 -x {3.0 0.0 15 ------- null}
- -t 0.407205333333333 -s 3 -d 2 -p ack -e 40 -c 2 -i 46 -a 2 -x {3.0 0.0 15 ------- null}
h -t 0.407205333333333 -s 3 -d 2 -p ack -e 40 -c 2 -i 46 -a 2 -x {3.0 0.0 -1 ------- null}
- -t 0.408266666666667 -s 0 -d 2 -p tcp -e 1040 -c 2 -i 42 -a 2 -x {0.0 3.0 27 ------- null}
h -t 0.408266666666667 -s 0 -d 2 -p tcp -e 1040 -c 2 -i 42 -a 2 -x {0.0 3.0 -1 ------- null}
r -t 0.408282666666667 -s 0 -d 2 -p tcp -e 1040 -c 2 -i 38 -a 2 -x {0.0 3.0 23 ------- null}
+ -t 0.408282666666667 -s 2 -d 3 -p tcp -e 1040 -c 2 -i 38 -a 2 -x {0.0 3.0 23 ------- null}
- -t 0.409392 -s 2 -d 3 -p tcp -e 1040 -c 2 -i 35 -a 2 -x {0.0 3.0 20 ------- null}
h -t 0.409392 -s 2 -d 3 -p tcp -e 1040 -c 2 -i 35 -a 2 -x {0.0 3.0 -1 ------- null}
- -t 0.411594666666667 -s 0 -d 2 -p tcp -e 1040 -c 2 -i 43 -a 2 -x {0.0 3.0 28 ------- null}
h -t 0.411594666666667 -s 0 -d 2 -p tcp -e 1040 -c 2 -i 43 -a 2 -x {0.0 3.0 -1 ------- null}
r -t 0.411610666666667 -s 0 -d 2 -p tcp -e 1040 -c 2 -i 39 -a 2 -x {0.0 3.0 24 ------- null}
+ -t 0.411610666666667 -s 2 -d 3 -p tcp -e 1040 -c 2 -i 39 -a 2 -x {0.0 3.0 24 ------- null}
r -t 0.412752 -s 2 -d 3 -p tcp -e 1040 -c 2 -i 29 -a 2 -x {0.0 3.0 16 ------- null}
+ -t 0.412752 -s 3 -d 2 -p ack -e 40 -c 2 -i 47 -a 2 -x {3.0 0.0 16 ------- null}
- -t 0.412752 -s 3 -d 2 -p ack -e 40 -c 2 -i 47 -a 2 -x {3.0 0.0 16 ------- null}
h -t 0.412752 -s 3 -d 2 -p ack -e 40 -c 2 -i 47 -a 2 -x {3.0 0.0 -1 ------- null}
- -t 0.414922666666667 -s 0 -d 2 -p tcp -e 1040 -c 2 -i 44 -a 2 -x {0.0 3.0 29 ------- null}
h -t 0.414922666666667 -s 0 -d 2 -p tcp -e 1040 -c 2 -i 44 -a 2 -x {0.0 3.0 -1 ------- null}